Energy: -26.09245376                                                    
Freq      RwB97XD                                                     6-311++G(d,p)       
Number of atoms                            I                6
Info1-9                                    I   N=           9
          18          15        1002           0           0         100
           6          18        -802
Charge                                     I                0
Multiplicity                               I                1
Number of electrons                        I               20
Number of alpha electrons                  I               10
Number of beta electrons                   I               10
Number of basis functions                  I               72
Number of independent functions            I               72
Number of point charges in /Mol/           I                0
Number of translation vectors              I                0
Atomic numbers                             I   N=           6
           8           1           1           8           1           1
Nuclear charges                            R   N=           6
  8.00000000E+00  1.00000000E+00  1.00000000E+00  8.00000000E+00  1.00000000E+00
  1.00000000E+00
Current cartesian coordinates              R   N=          18
  2.58016741E+00 -1.26178154E-04  1.89148570E-01  3.35318795E+00  1.44484756E+00
 -5.82336217E-01  3.35405665E+00 -1.44375925E+00 -5.83969987E-01 -2.84590277E+00
  1.43763157E-04 -2.25523809E-01 -3.54534480E+00 -8.80392732E-04  1.44169418E+00
 -1.03601688E+00 -3.48598647E-04  1.56139317E-02
Force Field                                I                0
Int Atom Types                             I   N=           6
           0           0           0           0           0           0
MM charges                                 R   N=           6
  0.00000000E+00  0.00000000E+00  0.00000000E+00  0.00000000E+00  0.00000000E+00
  0.00000000E+00
Integer atomic weights                     I   N=           6
          16           1           1          16           1           1
Real atomic weights                        R   N=           6
  1.59949146E+01  1.00782504E+00  1.00782504E+00  1.59949146E+01  1.00782504E+00
  1.00782504E+00
Atom fragment info                         I   N=           6
           0           0           0           0           0           0
Atom residue num                           I   N=           6
           0           0           0           0           0           0
Nuclear spins                              I   N=           6
           0           1           1           0           1           1
Nuclear ZEff                               R   N=           6
 -5.60000000E+00 -1.00000000E+00 -1.00000000E+00 -5.60000000E+00 -1.00000000E+00
 -1.00000000E+00
Nuclear ZNuc                               R   N=           6
  8.00000000E+00  1.00000000E+00  1.00000000E+00  8.00000000E+00  1.00000000E+00
  1.00000000E+00
Nuclear QMom                               R   N=           6
  0.00000000E+00  0.00000000E+00  0.00000000E+00  0.00000000E+00  0.00000000E+00
  0.00000000E+00
Nuclear GFac                               R   N=           6
  0.00000000E+00  2.79284600E+00  2.79284600E+00  0.00000000E+00  2.79284600E+00
  2.79284600E+00
MicOpt                                     I   N=           6
          -1          -1          -1          -1          -1          -1
Number of contracted shells                I               32
Number of primitive shells                 I               54
Pure/Cartesian d shells                    I                0
Pure/Cartesian f shells                    I                0
Highest angular momentum                   I                2
Largest degree of contraction              I                6
Shell types                                I   N=          32
           0          -1          -1          -1          -1          -2
           0           0           0           0           1           0
           0           0           0           1           0          -1
          -1          -1          -1          -2           0           0
           0           0           1           0           0           0
           0           1
Number of primitives per shell             I   N=          32
           6           3           1           1           1           1
           3           1           1           1           1           3
           1           1           1           1           6           3
           1           1           1           1           3           1
           1           1           1           3           1           1
           1           1
Shell to atom map                          I   N=          32
           1           1           1           1           1           1
           2           2           2           2           2           3
           3           3           3           3           4           4
           4           4           4           4           5           5
           5           5           5           6           6           6
           6           6
Primitive exponents                        R   N=          54
  8.58850000E+03  1.29723000E+03  2.99296000E+02  8.73771000E+01  2.56789000E+01
  3.74004000E+00  4.21175000E+01  9.62837000E+00  2.85332000E+00  9.05661000E-01
  2.55611000E-01  8.45000000E-02  1.29200000E+00  3.38650000E+01  5.09479000E+00
  1.15879000E+00  3.25840000E-01  1.02741000E-01  3.60000000E-02  7.50000000E-01
  3.38650000E+01  5.09479000E+00  1.15879000E+00  3.25840000E-01  1.02741000E-01
  3.60000000E-02  7.50000000E-01  8.58850000E+03  1.29723000E+03  2.99296000E+02
  8.73771000E+01  2.56789000E+01  3.74004000E+00  4.21175000E+01  9.62837000E+00
  2.85332000E+00  9.05661000E-01  2.55611000E-01  8.45000000E-02  1.29200000E+00
  3.38650000E+01  5.09479000E+00  1.15879000E+00  3.25840000E-01  1.02741000E-01
  3.60000000E-02  7.50000000E-01  3.38650000E+01  5.09479000E+00  1.15879000E+00
  3.25840000E-01  1.02741000E-01  3.60000000E-02  7.50000000E-01
Contraction coefficients                   R   N=          54
  1.89515008E-03  1.43859006E-02  7.07320031E-02  2.40001011E-01  5.94797026E-01
  2.80802012E-01  1.13889012E-01  9.20811101E-01 -3.27447036E-03  1.00000000E+00
  1.00000000E+00  1.00000000E+00  1.00000000E+00  2.54938145E-02  1.90373109E-01
  8.52161486E-01  1.00000000E+00  1.00000000E+00  1.00000000E+00  1.00000000E+00
  2.54938145E-02  1.90373109E-01  8.52161486E-01  1.00000000E+00  1.00000000E+00
  1.00000000E+00  1.00000000E+00  1.89515008E-03  1.43859006E-02  7.07320031E-02
  2.40001011E-01  5.94797026E-01  2.80802012E-01  1.13889012E-01  9.20811101E-01
 -3.27447036E-03  1.00000000E+00  1.00000000E+00  1.00000000E+00  1.00000000E+00
  2.54938145E-02  1.90373109E-01  8.52161486E-01  1.00000000E+00  1.00000000E+00
  1.00000000E+00  1.00000000E+00  2.54938145E-02  1.90373109E-01  8.52161486E-01
  1.00000000E+00  1.00000000E+00  1.00000000E+00  1.00000000E+00
P(S=P) Contraction coefficients            R   N=          54
  0.00000000E+00  0.00000000E+00  0.00000000E+00  0.00000000E+00  0.00000000E+00
  0.00000000E+00  3.65113974E-02  2.37152983E-01  8.19701941E-01  1.00000000E+00
  1.00000000E+00  1.00000000E+00  0.00000000E+00  0.00000000E+00  0.00000000E+00
  0.00000000E+00  0.00000000E+00  0.00000000E+00  0.00000000E+00  0.00000000E+00
  0.00000000E+00  0.00000000E+00  0.00000000E+00  0.00000000E+00  0.00000000E+00
  0.00000000E+00  0.00000000E+00  0.00000000E+00  0.00000000E+00  0.00000000E+00
  0.00000000E+00  0.00000000E+00  0.00000000E+00  3.65113974E-02  2.37152983E-01
  8.19701941E-01  1.00000000E+00  1.00000000E+00  1.00000000E+00  0.00000000E+00
  0.00000000E+00  0.00000000E+00  0.00000000E+00  0.00000000E+00  0.00000000E+00
  0.00000000E+00  0.00000000E+00  0.00000000E+00  0.00000000E+00  0.00000000E+00
  0.00000000E+00  0.00000000E+00  0.00000000E+00  0.00000000E+00
Coordinates of each shell                  R   N=          96
  2.58016741E+00 -1.26178154E-04  1.89148570E-01  2.58016741E+00 -1.26178154E-04
  1.89148570E-01  2.58016741E+00 -1.26178154E-04  1.89148570E-01  2.58016741E+00
 -1.26178154E-04  1.89148570E-01  2.58016741E+00 -1.26178154E-04  1.89148570E-01
  2.58016741E+00 -1.26178154E-04  1.89148570E-01  3.35318795E+00  1.44484756E+00
 -5.82336217E-01  3.35318795E+00  1.44484756E+00 -5.82336217E-01  3.35318795E+00
  1.44484756E+00 -5.82336217E-01  3.35318795E+00  1.44484756E+00 -5.82336217E-01
  3.35318795E+00  1.44484756E+00 -5.82336217E-01  3.35405665E+00 -1.44375925E+00
 -5.83969987E-01  3.35405665E+00 -1.44375925E+00 -5.83969987E-01  3.35405665E+00
 -1.44375925E+00 -5.83969987E-01  3.35405665E+00 -1.44375925E+00 -5.83969987E-01
  3.35405665E+00 -1.44375925E+00 -5.83969987E-01 -2.84590277E+00  1.43763157E-04
 -2.25523809E-01 -2.84590277E+00  1.43763157E-04 -2.25523809E-01 -2.84590277E+00
  1.43763157E-04 -2.25523809E-01 -2.84590277E+00  1.43763157E-04 -2.25523809E-01
 -2.84590277E+00  1.43763157E-04 -2.25523809E-01 -2.84590277E+00  1.43763157E-04
 -2.25523809E-01 -3.54534480E+00 -8.80392732E-04  1.44169418E+00 -3.54534480E+00
 -8.80392732E-04  1.44169418E+00 -3.54534480E+00 -8.80392732E-04  1.44169418E+00
 -3.54534480E+00 -8.80392732E-04  1.44169418E+00 -3.54534480E+00 -8.80392732E-04
  1.44169418E+00 -1.03601688E+00 -3.48598647E-04  1.56139317E-02 -1.03601688E+00
 -3.48598647E-04  1.56139317E-02 -1.03601688E+00 -3.48598647E-04  1.56139317E-02
 -1.03601688E+00 -3.48598647E-04  1.56139317E-02 -1.03601688E+00 -3.48598647E-04
  1.56139317E-02
Constraint Structure                       R   N=          18
  2.58016741E+00 -1.26178154E-04  1.89148570E-01  3.35318795E+00  1.44484756E+00
 -5.82336217E-01  3.35405665E+00 -1.44375925E+00 -5.83969987E-01 -2.84590277E+00
  1.43763157E-04 -2.25523809E-01 -3.54534480E+00 -8.80392732E-04  1.44169418E+00
 -1.03601688E+00 -3.48598647E-04  1.56139317E-02
Num ILSW                                   I              100
ILSW                                       I   N=         100
           0           0           0           1           2           0
           0           0           0           0        4639          -1
           5           0           0           0           2           0
           0           0           0           0           1           0
           1           0           0           0           0           0
           0           0      100000           0          -1           0
           0           0           0           0           0           0
           0           0           0           1           0           0
           0           0           1           0           0           0
           0           0         121          41           0           0
           0           0          58           0           0           0
           0           0           0           6           0           0
           0           0           0           0           0           0
           0           0           0           0           0           0
           0           0           0           0           0           0
           0           0           0           0           0           0
           0           0           0           0
Num RLSW                                   I               41
RLSW                                       R   N=          41
  1.00000000E+00  1.00000000E+00  1.00000000E+00  1.00000000E+00  1.00000000E+00
  0.00000000E+00  2.00000000E-01  2.22036000E-01  0.00000000E+00  7.77964000E-01
  0.00000000E+00  2.00000000E-01  0.00000000E+00  0.00000000E+00  1.00000000E+00
  0.00000000E+00  0.00000000E+00  1.00000000E+00  0.00000000E+00  0.00000000E+00
  0.00000000E+00  0.00000000E+00  1.00000000E+00  0.00000000E+00  0.00000000E+00
  0.00000000E+00  0.00000000E+00  1.00000000E+00  0.00000000E+00  0.00000000E+00
  0.00000000E+00  0.00000000E+00  1.00000000E+00  0.00000000E+00  0.00000000E+00
  0.00000000E+00  0.00000000E+00  0.00000000E+00  1.00000000E+00  1.00000000E+00
  0.00000000E+00
MxBond                                     I                3
NBond                                      I   N=           6
           3           1           1           2           1           2
IBond                                      I   N=          18
           2           3           6           1           0           0
           1           0           0           5           6           0
           4           0           0           1           4           0
RBond                                      R   N=          18
  1.00000000E+00  1.00000000E+00  1.00000000E-01  1.00000000E+00  0.00000000E+00
  0.00000000E+00  1.00000000E+00  0.00000000E+00  0.00000000E+00  1.00000000E+00
  1.00000000E+00  0.00000000E+00  1.00000000E+00  0.00000000E+00  0.00000000E+00
  1.00000000E-01  1.00000000E+00  0.00000000E+00
Virial Ratio                               R      2.002906607363708E+00
SCF Energy                                 R     -1.528747358696018E+02
Total Energy                               R     -1.528747358696018E+02
RMS Force                                  R      2.187583307813649E-05
RMS Density                                R      4.653424293087347E-10
External E-field                           R   N=          35
  0.00000000E+00  0.00000000E+00  0.00000000E+00  0.00000000E+00  0.00000000E+00
  0.00000000E+00  0.00000000E+00  0.00000000E+00  0.00000000E+00  0.00000000E+00
  0.00000000E+00  0.00000000E+00  0.00000000E+00  0.00000000E+00  0.00000000E+00
  0.00000000E+00  0.00000000E+00  0.00000000E+00  0.00000000E+00  0.00000000E+00
  0.00000000E+00  0.00000000E+00  0.00000000E+00  0.00000000E+00  0.00000000E+00
  0.00000000E+00  0.00000000E+00  0.00000000E+00  0.00000000E+00  0.00000000E+00
  0.00000000E+00  0.00000000E+00  0.00000000E+00  0.00000000E+00  0.00000000E+00
IOpCl                                      I                0
IROHF                                      I                0
Alpha Orbital Energies                     R   N=          72
 -1.92822969E+01 -1.92201302E+01 -1.15051252E+00 -1.08822031E+00 -6.57370728E-01
 -6.02235351E-01 -5.15457630E-01 -4.52933409E-01 -4.32030200E-01 -3.77616432E-01
  3.01853195E-02  6.85992224E-02  7.03793174E-02  1.13587306E-01  1.94719694E-01
  2.09218118E-01  2.15141349E-01  2.31926685E-01  2.47696522E-01  2.61777478E-01
  2.85921434E-01  2.94444484E-01  3.00204514E-01  3.26899875E-01  3.79307481E-01
  4.09238912E-01  5.67122458E-01  6.13519490E-01  6.30857612E-01  7.13086593E-01
  1.02967948E+00  1.05800166E+00  1.10204997E+00  1.11283730E+00  1.12011306E+00
  1.15696703E+00  1.29515602E+00  1.31422333E+00  1.37896234E+00  1.38227219E+00
  1.40896201E+00  1.53116163E+00  1.58124382E+00  1.65401429E+00  1.74527408E+00
  1.83109800E+00  2.06202310E+00  2.15365089E+00  2.20010561E+00  2.35115774E+00
  2.54537393E+00  2.58983782E+00  2.64078428E+00  2.78206588E+00  3.15553848E+00
  3.19935760E+00  3.21798167E+00  3.26785558E+00  3.37202418E+00  3.43815013E+00
  3.75150251E+00  3.80812813E+00  3.96093577E+00  4.03121219E+00  5.06138789E+00
  5.07706419E+00  5.44655134E+00  5.49969575E+00  5.71441868E+00  5.81727403E+00
  4.99791249E+01  5.00539793E+01
Alpha MO coefficients                      R   N=        5184
  5.51670175E-01  4.69617240E-01  9.10037275E-04  8.18216970E-07 -9.64600103E-04
  1.23412881E-02  5.46064050E-05  1.20113126E-07 -1.71935621E-04 -5.06437319E-03
  5.89983273E-04  2.17740785E-07 -2.42004472E-04  5.89581248E-03 -2.59136575E-04
  4.94779664E-07 -5.71910164E-04 -1.49857493E-04 -2.10279212E-04  2.33117548E-07
 -2.46978352E-04 -3.74723030E-08 -6.35728093E-05 -4.18580148E-04 -1.36016964E-03
 -2.48912103E-04  3.85091548E-04  7.40038664E-04 -3.87460179E-04 -6.35732559E-05
 -4.18693730E-04 -1.35984262E-03 -2.48919090E-04  3.85567398E-04 -7.39389186E-04
 -3.88310937E-04  1.46797551E-05 -6.80725508E-06 -4.01734255E-05  5.14470796E-09
  6.78105547E-06  1.36733495E-04  1.82082027E-04 -1.89394877E-08 -2.62875014E-05
 -2.32661659E-04 -1.95104260E-04  3.69363225E-08 -6.83988635E-05  1.11218038E-03
  1.41459773E-04 -1.63820768E-07  1.04064141E-04 -4.15823869E-05  1.60610489E-05
  2.36243936E-08  2.57214791E-05 -4.52538671E-08 -1.13729040E-05  2.09673932E-04
 -3.59540756E-04  4.66769361E-04  6.09216188E-05  2.15482347E-08 -3.31572658E-05
 -1.32631136E-04  3.94516765E-04 -1.41831297E-03 -1.08515796E-03  2.53546347E-04
 -7.84417005E-09  4.99494459E-05 -1.54407690E-05 -2.68420212E-05  6.11450539E-05
  1.76355736E-08 -9.77635821E-06  1.13052287E-04 -2.39724243E-04 -6.73762049E-08
  4.07655592E-05 -2.94373712E-04  5.48198765E-04  9.28922323E-10  2.15853250E-05
 -5.62059508E-04 -3.48545205E-04 -3.50825202E-07  2.31913020E-04  1.52755567E-05
 -2.46129755E-06 -1.40536236E-08  1.14006268E-05  8.50987077E-09 -1.99295434E-05
  9.95361176E-05  2.75333802E-04  3.70392978E-04 -1.01455459E-04 -1.57738132E-05
 -9.50277979E-06 -1.99426266E-05  9.94200977E-05  2.75097781E-04  3.70526020E-04
 -1.01471879E-04  1.57208664E-05 -9.52513496E-06  5.51672077E-01  4.69617701E-01
  5.79662342E-04 -9.16065481E-07  1.17949869E-03  1.23571122E-02  2.11599070E-04
 -1.82599726E-07  1.91655706E-04 -5.29676475E-03 -2.10742550E-04 -1.94249861E-07
  3.42510113E-04  4.77952715E-03  5.36677689E-04 -2.74989588E-07  2.36385799E-04
  1.06750127E-04 -1.29744494E-04 -3.06236829E-07  2.90971609E-04 -2.47896112E-08
 -5.65094962E-05 -4.10966547E-04 -8.81527277E-04  2.49813790E-04 -3.36128364E-04
 -5.29222802E-07  8.53748286E-04 -6.64474212E-05 -1.72309715E-04 -4.20617809E-04
 -2.16908167E-03  9.02210348E-04 -1.90784368E-07  1.02640110E-04 -1.15857080E-01
 -1.86003914E-01  3.36160353E-02  3.07187139E-05 -3.60237444E-02  5.37612307E-01
  5.27102244E-02  4.82298978E-05 -5.63675282E-02  3.69921415E-01  1.19536240E-02
  1.60741613E-05 -1.95389216E-02 -1.92682542E-02  8.32587308E-03  1.23771632E-07
  2.82580503E-04 -3.39193533E-03 -7.30469481E-03  3.84806702E-06 -4.93566741E-03
  1.01975512E-06  9.71773406E-02  8.26743760E-02 -1.82994732E-03  4.14715377E-03
 -8.68525436E-03 -2.24964005E-02  8.92693062E-03  9.71773725E-02  8.26757231E-02
 -1.83206740E-03  4.14654024E-03 -8.69898014E-03  2.24811520E-02  8.95252071E-03
 -7.43312860E-03 -1.19027979E-02  3.05701554E-03 -2.15670385E-06  2.59225802E-03
  3.42002507E-02  4.25814201E-03 -3.52175199E-06  4.22800922E-03  2.02482317E-02
  7.38564169E-04 -1.38963313E-07  6.31668982E-04 -1.44710391E-02 -3.72280110E-03
  1.25194381E-06  8.06027859E-04  1.73871197E-04 -4.27767727E-06 -6.46404366E-07
  6.65224030E-04 -1.68690917E-07  5.79730377E-03  4.51784224E-03 -1.61708664E-04
 -4.42277558E-03  7.27421815E-04  7.08279332E-07 -1.32674907E-03  1.09508088E-02
  1.02520002E-02  2.12126502E-02  1.16437011E-02 -1.57383378E-03  7.39033530E-07
 -1.14775590E-04  8.61558172E-03  1.38936624E-02 -5.98303962E-03 -2.68830394E-06
  3.11867904E-03 -4.11081636E-02 -7.29105926E-03 -3.86234854E-06  4.75000028E-03
 -2.56144986E-02 -7.67210366E-03 -8.65178058E-07  9.69621816E-04  9.21803234E-03
 -6.24483639E-05  1.87487988E-06 -1.63223000E-03  1.73786503E-04  7.09466705E-04
 -2.72189606E-07  4.06742461E-04 -2.17208307E-07 -8.23557556E-03 -8.34342828E-03
 -1.95578731E-03 -3.21703415E-03  1.04691305E-03  2.07887504E-03 -6.93386224E-04
 -8.23631052E-03 -8.34322745E-03 -1.95459985E-03 -3.21720101E-03  1.04845856E-03
 -2.07746033E-03 -6.95556045E-04 -1.15599839E-01 -1.85581482E-01  2.34833786E-02
 -3.52211672E-05  4.49848861E-02  5.36576952E-01  3.62666823E-02 -5.46862677E-05
  6.99490595E-02  3.65742591E-01  1.41503772E-02 -1.83388901E-05  2.31657873E-02
  6.03795681E-03  2.41536550E-03 -2.75325056E-06  3.28552591E-03  4.49536618E-03
 -1.56091488E-03 -1.06854177E-05  8.07933996E-03 -1.83719990E-06  9.96912665E-02
  8.75636415E-02 -5.99576260E-03  2.81001705E-03  1.32363262E-02  1.31348961E-05
 -2.25011071E-02  9.39180674E-02  8.10254975E-02 -1.88685449E-02  1.39295978E-02
 -2.65233128E-02  4.50081025E-06 -7.50603651E-06 -2.16312025E-07 -3.44962718E-07
 -7.75842388E-05  2.41593207E-01  1.38006382E-04  5.77365998E-07 -1.12502253E-04
  3.50993886E-01  2.00473159E-04  4.81709755E-06 -7.15272592E-05  2.15297708E-01
  1.22055926E-04  2.79426722E-06 -6.59149363E-06  1.45908104E-02  9.08936852E-06
 -1.73611538E-05  1.48823596E-05 -1.76059457E-02 -1.99188554E-05  1.64291151E-02
  1.52708899E-01  2.02217795E-01  2.96700391E-02  1.41378207E-02 -1.64251814E-02
 -1.46541238E-02  1.60288379E-02 -1.52712555E-01 -2.02224597E-01 -2.96694008E-02
 -1.41374360E-02  1.64338690E-02 -1.46270857E-02 -1.60454667E-02  1.63960157E-06
  2.67580708E-06  1.60979046E-05  1.93264188E-03 -6.10469808E-06 -8.23250164E-06
  2.28424654E-05  2.52522542E-03 -9.14936403E-06 -8.32393358E-06  1.44431179E-05
  2.63985981E-03 -3.46304042E-06  1.34202981E-05  6.42856805E-06  6.60423125E-04
  6.45837209E-07 -1.22848201E-06  1.12495765E-06  9.89861590E-05  8.96723462E-07
  9.99015634E-05 -1.15082360E-05 -1.53543765E-05 -3.07512509E-06  5.77736042E-07
 -1.19216962E-07  1.32022505E-04  2.34383376E-06  1.28058902E-05  1.94188206E-05
 -1.16593251E-05 -4.20860079E-06 -8.57453709E-07  1.92765134E-03  2.02282432E-07
 -4.54949279E-03 -7.42850447E-03 -6.20257618E-02 -4.96787514E-05  1.74898313E-02
  2.05105858E-02 -8.92533834E-02 -7.19272017E-05  2.49358837E-02  4.76686770E-02
 -7.52375431E-02 -4.50304240E-05  1.08931919E-02  2.06519762E-02 -1.51842895E-02
 -6.24549368E-06  7.66821962E-04 -2.28429787E-05  3.57773802E-03  2.87526714E-06
 -4.85772777E-04 -4.43440529E-06 -2.11711601E-02 -3.45608286E-02 -6.14397107E-03
 -2.08469769E-03 -2.68440077E-03  6.91904877E-03 -5.96592669E-04 -2.11430646E-02
 -3.45197752E-02 -6.14035383E-03 -2.08003198E-03 -2.68231179E-03 -6.91721217E-03
 -6.00959292E-04  4.96161963E-04  8.21437955E-04  2.00071939E-01  4.18269918E-05
 -1.12152626E-01 -2.75919978E-03  2.89454586E-01  6.10058752E-05 -1.62891327E-01
  3.83844530E-04  1.76269180E-01  3.50303503E-05 -9.57659604E-02  2.36933555E-02
  2.15114146E-02  1.70507152E-08 -5.90360639E-03 -1.71559807E-02  1.20704702E-02
  1.16551481E-05  9.69438416E-03 -1.17199687E-05 -1.46272902E-01 -2.00425037E-01
 -3.82193016E-02 -1.38481731E-02  3.53061270E-06 -1.80316641E-05  2.61749120E-02
  1.47187104E-01  2.01507066E-01  4.55891557E-03  1.14566788E-02 -2.42394701E-02
  1.24731566E-05 -1.20065262E-02 -3.90659449E-02 -6.41158736E-02 -1.81369265E-01
 -1.49817749E-04  1.67754570E-01  1.94514800E-01 -2.61057659E-01 -2.15641001E-04
  2.41931512E-01  2.89197533E-01 -2.17742976E-01 -1.70604547E-04  1.89627453E-01
 -6.94051580E-03 -4.50144499E-02 -4.54126482E-05  5.34888680E-02 -3.62804995E-03
  1.38253846E-02  1.01215098E-05 -4.24127862E-03 -1.05364401E-05 -8.21329350E-02
 -1.28932565E-01 -2.16998324E-03 -4.44557956E-03 -8.50217496E-03  2.47133801E-02
  8.53232030E-03 -8.21323588E-02 -1.28928130E-01 -2.17105715E-03 -4.44269595E-03
 -8.48815168E-03 -2.47276260E-02  8.50489886E-03  1.48442611E-02  2.42961704E-02
 -3.23006236E-02 -4.23082404E-05  7.54937796E-02 -7.44101001E-02 -4.71814550E-02
 -6.03327562E-05  1.08136214E-01 -9.54216341E-02 -3.01794968E-02 -4.53051241E-05
  8.12284954E-02 -4.44228341E-02  1.41589049E-03  2.99799256E-06 -1.40466036E-03
  6.36785147E-03 -7.69493781E-04 -6.59956971E-06 -8.60845300E-04  1.16046442E-06
  5.45605370E-02  7.75618942E-02  4.26112862E-02  7.76529914E-04  4.87198584E-03
  3.58738730E-06 -5.85279721E-03 -9.71538480E-03 -4.07887503E-03  1.74301412E-02
  6.14913539E-03  9.51068742E-03 -7.03920317E-06  9.94564660E-03  1.25992292E-02
  2.07427491E-02 -5.46902065E-02  6.30701208E-05 -1.44589865E-01 -6.50708755E-02
 -8.07998144E-02  9.14632871E-05 -2.10767430E-01 -8.54918524E-02 -8.33889564E-02
  8.41617251E-05 -1.92354318E-01  9.80336995E-03 -3.62924568E-02  1.02909780E-05
 -3.71076000E-02  7.18339332E-03 -3.31738578E-03 -6.89840526E-06 -1.71385829E-03
  3.51189679E-07  1.99797473E-02  2.88178342E-02  1.11835463E-02  3.40522497E-03
 -7.40186832E-03 -5.72162838E-03 -1.40194867E-02  1.99837850E-02  2.88258609E-02
  1.11858675E-02  3.40768951E-03 -7.40551386E-03  5.73362653E-03 -1.40124479E-02
  3.68625566E-02  6.05583616E-02  1.03243912E-01 -1.51645822E-04  1.93205613E-01
 -1.85488631E-01  1.47464947E-01 -2.18315975E-04  2.78507159E-01 -2.62778132E-01
  1.23101928E-01 -1.72189710E-04  2.18413882E-01  1.83332091E-02  4.96849671E-02
 -4.76518421E-05  5.20264316E-02  9.78441270E-03  9.00557818E-03 -1.60935710E-05
  4.04515988E-03 -7.55563423E-06  7.85407497E-02  1.26689627E-01  3.13933446E-02
  8.40812887E-03  2.54340029E-02 -3.62380728E-06 -1.29875587E-03  7.04344072E-02
  1.14054221E-01 -5.59265425E-02 -2.28312427E-02 -1.35343465E-02 -1.15082881E-05
  1.94174545E-02  3.39603750E-03  5.61926545E-03  1.93977392E-01 -3.93821487E-05
  1.70243917E-01 -1.73967894E-02  2.82818050E-01 -5.86631630E-05  2.50822700E-01
 -1.95248172E-02  2.68495427E-01 -6.14751666E-05  2.38713977E-01 -1.63606280E-01
  8.41680496E-02 -3.03229313E-05  8.48895775E-02 -1.21405271E-02 -1.94801065E-03
  7.68682714E-06  7.25248089E-03  5.11328751E-06  5.36912863E-03  1.46618497E-02
  5.72398322E-02 -2.08895603E-03  1.94150358E-02 -2.26367151E-03  1.95079956E-02
  5.37171845E-03  1.46555795E-02  5.72411709E-02 -2.09436530E-03  1.94146228E-02
  2.25305909E-03  1.95097342E-02  1.53966692E-02  2.52201699E-02  1.03298851E-01
 -9.40717445E-05  9.59164102E-02 -7.40601349E-02  1.51829045E-01 -1.36412088E-04
  1.38152681E-01 -1.36046097E-01  1.02974668E-01 -1.08274380E-04  1.10791722E-01
 -1.20979342E-01  1.15288823E-03 -1.07433373E-05  1.73061696E-02  3.43567510E-03
  7.74359194E-03 -7.98955687E-06  2.98312410E-03 -6.98570573E-06  2.26996842E-02
  4.07456314E-02  1.77077151E-02 -2.72480750E-03  1.78508450E-02 -6.14057535E-06
  2.70655850E-03  5.40797576E-02  7.92997006E-02  1.70642153E-01  2.08277806E-02
 -1.98073420E-02 -5.10605312E-06  1.13111390E-02  1.77253005E-06  2.92297606E-06
  1.19065783E-05 -4.58140267E-03  7.23337545E-07 -9.29172937E-06  1.67070434E-05
 -6.54356045E-03  1.79663634E-06 -1.45305680E-05  1.51015930E-05 -2.44254900E-03
  2.16249602E-06 -1.38693753E-06 -2.50435495E-05  2.82518661E-02  2.56645396E-05
 -3.49842622E-07 -9.89245857E-07  2.79196188E-04  1.15609118E-06 -1.00053085E-03
 -3.59626864E-03 -6.17730624E-03 -2.82269356E-02  2.08797093E-03  2.44354675E-04
  4.79835561E-04 -8.38479912E-04  3.59980110E-03  6.18130902E-03  2.82559256E-02
 -2.07475762E-03 -2.42891683E-04  4.79407235E-04  8.40365684E-04  2.28114637E-07
  3.74849464E-07  5.70027320E-05  2.93991695E-01  2.05228759E-04 -1.12071217E-06
  8.30351532E-05  4.31532315E-01  3.00824299E-04 -2.37727111E-06  7.89316259E-05
  4.02460709E-01  2.82623055E-04  5.14847968E-05  3.85031510E-05  1.09129473E-01
  7.42266898E-05  1.75422661E-05  8.36462703E-06  1.45970213E-02  1.29458341E-05
  7.97399958E-03  2.30752528E-07 -7.71279649E-07  8.20645581E-07  1.29083751E-05
  6.73963900E-06  3.47943146E-02  2.42243067E-05  7.58837445E-07  4.58630169E-06
 -6.11166767E-05 -3.70072443E-05  4.94057798E-06  3.23296841E-02  2.24269408E-05
  2.57214386E-02  4.33292293E-02 -3.72027954E-02 -2.81449583E-05  3.59078239E-02
 -1.58529636E-01 -5.91960361E-02 -4.20034730E-05  5.34044181E-02 -1.43603582E-01
 -5.91910916E-02 -6.08494148E-05  7.29167739E-02 -7.70366228E-01 -1.19256223E-01
 -3.91943200E-05  5.93543829E-02 -1.74924977E-03  1.50852480E-03  3.74226282E-06
 -2.55365658E-03 -2.46504891E-06  1.07252819E-02  9.81981622E-02  1.51934027E-01
  7.88374891E-01  8.45373339E-03  1.95360463E-02 -8.76143197E-03  1.07240549E-02
  9.81986537E-02  1.51944992E-01  7.88603813E-01  8.46666983E-03 -1.95228694E-02
 -8.78510886E-03  9.32967513E-03  1.55361731E-02 -1.59493780E-02  8.33631182E-06
 -1.37644005E-02 -5.28128015E-02 -2.30601264E-02  1.21185660E-05 -2.26131614E-02
 -7.78480011E-02 -3.67431913E-02  2.21849287E-05 -2.20061879E-02 -1.32138032E-01
 -5.20830951E-03 -3.71862608E-06 -3.54853366E-02 -4.10695078E-04 -1.46303769E-03
  8.07531787E-07 -4.26425730E-04  1.20305981E-06  3.00663688E-03  3.41148302E-02
  4.21058296E-03  4.99044428E-01 -3.47752407E-03 -3.76948453E-06  5.50642124E-03
  1.11789937E-03  3.37554184E-02  7.46515595E-02 -5.40268896E-01  7.43184945E-03
 -1.03396861E-06 -2.94984364E-04 -2.00123546E-03 -3.49601263E-03  3.10182488E-02
 -4.42896403E-05 -1.69071104E-02  1.60669248E-02  4.57590146E-02 -7.89368566E-05
 -2.42348436E-02 -4.43086738E-03  5.13759863E-02  4.25194644E-06 -3.28097958E-02
  1.55392620E-01  6.63424414E-02 -4.86028634E-04  3.38565256E-03  7.85763150E-05
 -1.71112606E-03 -2.47293753E-06  2.34528632E-03  3.08042204E-06  6.68779709E-04
 -2.70681429E-02  1.95965384E-02 -3.14486795E-01 -2.26523912E-03 -6.73606249E-03
  2.86641198E-03  6.80757737E-04 -2.71481834E-02  1.93818548E-02 -3.19157524E-01
 -2.28851877E-03  6.76074688E-03  2.89360836E-03  1.76198537E-02  2.99606505E-02
  1.51397517E-02  1.66736944E-05 -4.67243749E-02 -1.15766230E-01  2.95136614E-02
  2.35125430E-05 -7.18142618E-02 -3.97344132E-02 -2.62387443E-02  3.57472167E-05
 -6.62390082E-02 -7.67402928E-01  2.09708532E-01  6.33861461E-05 -1.91304366E-01
 -5.37266907E-04 -2.10288775E-03  1.35673769E-07  8.86716684E-05  1.27792559E-06
 -1.67706521E-03  9.23605941E-02  1.02986459E-01  1.80487262E+00 -9.85799031E-03
 -1.80893729E-05  2.68876887E-02  8.36246165E-03  5.01874898E-02  4.83401023E-02
 -3.09518711E-01  3.91255713E-03  2.24515169E-06 -1.92569453E-03  2.68573057E-06
  4.62914272E-06 -2.20075700E-05 -6.02635643E-02 -1.49517798E-05 -1.97003113E-05
 -3.10957347E-05 -1.01869534E-01 -2.99351158E-05 -6.01746741E-06 -4.84678202E-05
 -3.15463748E-02  2.10248309E-05 -1.53490233E-04  4.86783472E-05 -4.39996274E-01
 -2.58973389E-04 -4.83277228E-07  2.83872988E-06 -5.67532011E-04 -3.54672529E-06
  9.93713243E-04 -4.93306011E-03  4.82788206E-02  4.62143208E-02  2.39543574E+00
  9.64504928E-03  1.37987016E-02 -9.30273834E-03  4.93071512E-03 -4.82019383E-02
 -4.63093921E-02 -2.39450735E+00 -9.64828357E-03  1.37664939E-02  9.31076346E-03
 -1.67168649E-05 -2.84813504E-05 -1.57903237E-05 -1.64410771E-02  3.77198418E-05