 --invoking executable xjoda


   *************************************************************************
         <<<     CCCCCC     CCCCCC   |||     CCCCCC     CCCCCC   >>>
       <<<      CCC        CCC       |||    CCC        CCC         >>>
      <<<      CCC        CCC        |||   CCC        CCC            >>>
    <<<        CCC        CCC        |||   CCC        CCC              >>>
      <<<      CCC        CCC        |||   CCC        CCC            >>>
       <<<      CCC        CCC       |||    CCC        CCC         >>>
         <<<     CCCCCC     CCCCCC   |||     CCCCCC     CCCCCC   >>>
   *************************************************************************

     ****************************************************************
     * CFOUR Coupled-Cluster techniques for Computational Chemistry *
     ****************************************************************
 

   Department of Chemistry                Institut fuer Physikalische Chemie
   University of Texas at Austin          Universitaet Mainz
   Austin, TX  78712, USA                 D-55099 Mainz, Germany
 
                       Version 1.01
 
                     schem1a1.systems.smu.edu                          
                     Thu Feb 13 20:51:52 CST 2014                      
                     integer*8 version is running
 
    -------------------------------------------------------------------
                    Input from ZMAT file
    -------------------------------------------------------------------
 
 FREQ at CCSD(T)/cc-pVTZ level                                                  
 H                                                                              
 O 1 R1                                                                         
 H 2 R1 1 A1                                                                    
                                                                                
 R1 =   0.9594259177                                                            
 A1 = 103.5821726176                                                            
                                                                                
 *ACES2(CALC=CCSD(T),BASIS=PVTZ                                                 
 SYMMETRY=OFF,FROZEN_CORE=ON                                                    
 VIB=ANALYTIC                                                                   
 ABCDTYPE=AOBASIS                                                               
 MEM_UNIT=GB,MEMORY=6)                                                          
                                                                                
                                                                                
                                                                                
 
    -------------------------------------------------------------------
                    CFOUR Control Parameters 
    -------------------------------------------------------------------
        External           Internal           Value            Units
          Name               Name
    -------------------------------------------------------------------
       PRINT                IPRNT               0               ***   
       CALCLEVEL            ICLLVL           CCSD(T)    [ 22]   ***   
       DERIV_LEV            IDRLVL            SECOND    [  2]   ***   
       CC_CONV              ICCCNV          10D-  7             ***   
       SCF_CONV             ISCFCV          10D-  7             ***   
       XFORM_TOL            IXFTOL          10D- 11             ***   
       CC_MAXCYC            ICCCYC             50              cycles 
       LINDEP_TOL           ILINDP              8               ***   
       RDO                  IRDOFM              ON      [  1]   ***   
  
       SCF_EXTRAPO          IRPP                ON      [  1]   ***   
       REFERENCE            IREFNC             RHF      [  0]   ***   
       CC_EXPORDER          ICCEOR              5               ***   
       TAMP_SUM             IEVERY              5               ***   
       NTOP_TAMP            ITOPT2             15               ***   
       CCORBOPT             ICCORB             OFF      [  0] x 0.01  
       SCF_MAXCYC           ISCFCY            150              cycles 
       OCCUPATION           IOCCU   ESTIMATED BY SCF 
       PROPS                IPROPS             OFF      [  0]   ***   
       RELAX_DENS           IRDENS              ON      [  1]   ***   
  
       SCF_EXPORDE          IRPPOR              6               ***   
       CC_EXTRAPOL          ICCEXT             DIIS     [  1]   ***   
       BRUECKNER            IBRKNR             OFF      [  0]   ***   
       XFIELD               IXEFLD              0             x 10-6  
       YFIELD               IYEFLD              0             x 10-6  
       ZFIELD               IZEFLD              0             x 10-6  
       SAVE_INTS            ISVINT             OFF      [  0]   ***   
       DROPMO               IDRPMO      NONE         
       CHARGE               ICHRGE              0               ***   
       MULTIPLICTY          IMULTP              1               ***   
  
       CPHF_CONVER          ICPHFT          10D- 16             ***   
       CPHF_MAXCYC          ICPHFC             64              cycles 
       INCORE               INCORE             OFF      [  0]   ***   
       MEMORY_SIZE          IMEMSZ         750000000           words  
       FILE_RECSIZ          IFLREC              4096           words  
       NON-HF               INONHF             OFF      [  0]   ***   
       ORBITALS             IORBTP           STANDARD   [  0]   ***   
  
       SCF_EXPSTAR          IRPPLS              8               ***   
       LOCK_ORBOCC          ILOCOC             OFF      [  0]   ***   
       HBAR                 IHBAR              OFF      [  0]   ***   
       CACHE_RECS           ICHREC             10               ***   
       GUESS                IGUESS            MOREAD    [  0]   ***   
       JODA_PRINT           IJPRNT              0               ***   
       GEO_METHOD           INR            SINGLE_POINT [  5]   ***   
       GEO_CONV             ICONTL              5              H/bohr 
       EIGENVECTOR          IVEC                1               ***   
  
       NEGEVAL              IDIE             ABORT      [  0]   ***   
       CURVILINEAR          ICURVY            OFF       [  0]   ***   
       SCALE_ON             ISTCRT              0               ***   
       GEO_MAXSTEP          IMXSTP            300            millibohr
       VIBRATION            IVIB             ANALYTIC   [  1]   ***   
       EVAL_HESS            IRECAL              0            # of cyc.
       INTEGRALS            INTTYP             VMOL     [  1]   ***   
       FD_STEPSIZE          IDISFD              0            10-4 bohr
       POINTS               IGRDFD              0               ***   
       CONTRACTION          ICNTYP          GENERAL     [  1]   ***   
  
       SYMMETRY             ISYM            OFF         [  1]   ***   
       BASIS                IBASIS         PVTZ         [ 14]   ***   
       SPHERICAL            IDFGHI             ON       [  1]   ***   
       RESET_FLAGS          IRESET             OFF      [  0]   ***   
       PERT_ORB             IPTORB         CANONICAL    [  1]   ***   
       GENBAS_1             IGNBS1              0               ***   
       GENBAS_2             IGNBS2              0               ***   
       GENBAS_3             IGNBS3              0               ***   
       COORDINATES          ICOORD         INTERNAL     [  0]   ***   
       SYM_CHECK            ISYMCK         OVERRIDE     [  1]   ***   
  
       SCF_PRINT            ISCFPR              0               ***   
       ECP                  IECP           OFF          [  0]   ***   
       RESTART_CC           ICCRES         OFF          [  0]   ***   
       TRANS_INV            ITRAIN         USE          [  0]   ***   
       HFSTABILITY          ISTABL         OFF          [  0]   ***   
       ROT_EVEC             ROTVEC              0               ***   
       BRUCK_CONV           IBRTOL          10D-  4             ***   
       UNITS                IUNITS         ANGSTROM     [  0]   ***   
       FD_USEGROUP          IFDGRP         FULL         [  0]   ***   
  
       FD_PROJECT           IFDPRJ         ON           [  0]   ***   
       FD_CALTYPE           IFDCAL         GRADONLY     [  0]   ***   
       VTRAN                IVTRAN         PARTIAL      [  2]   ***   
       HF2_FILE             IHF2Fl         USE          [  1]   ***   
       SUBGROUP             ISUBGP         DEFAULT      [  0]   ***   
       SUBGRPAXIS           ISBXYZ         X            [  0]   ***   
       EXCITE               IEXCIT         NONE         [  0]   ***   
       LINEQ_CONV           IZTACN          10D-  7           cycles  
  
       TREAT_PERT           ITREAT         SIMULTANEOUS [  0]   ***   
       ESTATE_PROP          IEXPRP         OFF          [  0]   ***   
       GEO_MAXCYC           IOPTCY             50               ***   
       ABCDTYPE             IABCDT         AOBASIS      [  2]   ***   
       AO_LADDERS           IAOLAD         SINGLEPASS   [  1]   ***   
       FOCK                 IFOCK          AO           [  1]   ***   
       ESTATE_MAXC          IEXMXC             20               ***   
       ESTATE_CONV          IEXTOL          10D-  5             ***   
       DIRECT               IDIRCT         OFF          [  0]   ***   
  
       GAMMA_ABCD           IGABCD         DIRECT       [  1]   ***   
       LINEQ_TYPE           ILTYPE         DIIS         [  1]   ***   
       LINEQ_MAXCY          ILMAXC             50               ***   
       TRANGRAD             IRESRM         OFF          [  0]   ***   
       PSI                  IPSI           OFF          [  0]   ***   
       GAMMA_ABCI           IGABCI         STORE        [  0]   ***   
       ESTATE_DIAG          IEXDIG         ITERATIVE    [  0]   ***   
       FC_FIELD             IFINFC              0             x 10-6  
       SD_FIELD             IFINSD              0             x 10-6  
       DIFF_TYPE            IDIFTY         RELAXED      [  0]   ***   
  
       LINEQ_EXPOR          ILMAXD              5               ***   
       FINITE_PERT          IFIPER              0             x 10-6  
       ANHARMONIC           IANHAR         OFF          [  0]   ***   
       CC_PROGRAM           ICCPRO         VCC          [  0]   ***   
       OPEN-SHELL           IOPEN          SPIN-ORBITAL [  0]   ***   
       UIJ_THRESHO          IUIJTH             25               ***   
       SCF_DAMPING          IDAMP               0             x 10-3  
       PROP_INTEGR          IINTYP         INTERNAL     [  0]   ***   
       ANH_SYMMETR          IANHSM         ABELIAN      [  0]   ***   
       ANH_ALGORIT          IANALG         STANDARD     [  0]   ***   
  
       EOM_NONIT            EOMNON         OFF          [  0]   ***   
       VIB_ALGORIT          IGEALG         STANDARD     [  0]   ***   
       ANH_DERIVAT          IANDER         SECOND       [  1]   ***   
       SPINROTATIO          ISRCON         OFF          [  0]   ***   
       CIS_CONV             ICISTL              5               ***   
       ANH_STEPSIZ          ICUBST             50000          x 10-6  
       SPIN_FLIP            ISPFLP         OFF          [  0]   ***   
       GRID                 IGRID          OFF          [  0]   ***   
  
       DBOC                 IDBOC          OFF          [  0]   ***   
       EOMFOLLOW            IEOMSR         ENERGY       [  0]   ***   
       T3_EXTRAPOL          IT3EXT         OFF          [  0]   ***   
       ESTATE_LOCK          IESLOC         OFF          [  0]   ***   
       UNOS                 IUNOS          OFF          [  0]   ***   
       FREQ_ALGORI          IVIALG         STANDARD     [  0]   ***   
       RELATIVIST           IRELAT         OFF          [  0]   ***   
       FROZEN_CORE          IFROCO         ON           [  1]   ***   
       EXCITATION           IEXCIT              0               ***   
       INPUT_MRCC           IMRCC          ON           [  1]   ***   
  
       GIAO                 IGIAO          OFF          [  1]   ***   
       EOM_NSING            IEOMSI          10D-  0             ***   
       EOM_NTRIP            IEOMTR          10D-  0             ***   
       EOM_NSTATES          IMRCCD         DAVIDSON     [  0]   ***   
       DIAG_MRCC            IEOMST          10D-  0             ***   
       NEWNORM              INEWNO         OFF          [  0]   ***   
       TESTSUITE            ITESTS         OFF          [  0]   ***   
       BUFFERSIZE           IBUFFS            600               ***   
       SPINORBIT            ISOCAL         OFF          [  0]   ***   
       DCT                  IDCT           OFF          [  0]   ***   
  
       PARALLEL             IPARAL         ON           [  1]   ***   
       PARA_PRINT           IPPRIN              0               ***   
       COMM_SIZE            IPSIZE            ***               ***   
       PARA_INT             IPINTS         ON           [  1]   ***   
       RAMAN_INT            IRAMIN         OFF          [  0]   ***   
       RAMAN_ORB            IRAMRE         UNRELAXED    [  0]   ***   
       BREIT                IBREIT         OFF          [  0]   ***   
       MEM_UNIT             IMEMU          GB           [  3]   ***   
       SPIN_ORBIT           ISPORB         OFF          [  0]   ***   
       GENBAS_4             IGNBS4              0               ***   
  
       SPIN_SCAL            ISCSMP         OFF          [  0]   ***   
       GRID_ALGO            IGALGO         SERIAL       [  0]   ***   
       VIBPHASE             ISETPH         STANDARD     [  0]   ***   
       SEQUENCE             ISEQUE         OFF          [  0]   ***   
       HESS_TYPE            IHESTP         SCF          [  0]   ***   
       CONTINUUM            ICONTU         NONE         [  0]   ***   
       SCF_NOSTOP           ISCFST         OFF          [  0]   ***   
       CONSTANT             ICONST         OLD          [  1]   ***   
  
       EOM_MRCC             IMRCCE         OLD          [  0]   ***   
       EOM_ORDER            IEXORD         ENERGY       [  0]   ***   
       GIMIC                IGIMIC         OFF          [  0]   ***   
    -------------------------------------------------------------------
   3 entries found in Z-matrix 
   Job Title : FREQ at CCSD(T)/cc-pVTZ level                                                   
   There are  2 unique internal coordinates.
   Of these,  0 will be optimized.
   User supplied Z-matrix: 
--------------------------------------------------------------------------------
       SYMBOL    BOND      LENGTH    ANGLE     ANGLE     DIHED     ANGLE
                  TO      (ANGST)    WRT      (DEG)      WRT      (DEG)
--------------------------------------------------------------------------------
        H    
        O          1         R1   
        H          2         R1         1        A1   
                  *Initial values for internal coordinates* 
                      Name             Value
                        R1              0.9594259177
                        A1            103.5821726176
--------------------------------------------------------------------------------
  1  H          1     1.00783
  2  O          8    15.99491
  3  H          1     1.00783
   Rotational constants (in cm-1): 
          9.4921213219            14.7155989763            26.7412364041
   Rotational constants (in MHz): 
     284566.6781397470        441162.6206098725        801682.2114680710
********************************************************************************
   The full molecular point group is C2v .
   The largest Abelian subgroup of the full molecular point group is C2v .
   The computational point group is C1  .
********************************************************************************
--------------------------------------------------------------------------------
   Analysis of internal coordinates specified by Z-matrix 
--------------------------------------------------------------------------------
   *The nuclear repulsion energy is    9.17587 a.u.
   *There are   2 degrees of freedom within the tot. symm. molecular subspace.
   *Z-matrix requests optimization of   0 coordinates.
   *The optimization is constrained.
   *The following   2 parameters can have non-zero 
    derivatives within the totally symmetric subspace:
             A1   [ 3]  R1   [ 2]
   *The following   0 parameters are to be optimized:

   *The following coordinates must be varied in an  unconstrained optimization.
             A1   [ 3]  R1   [ 2]
--------------------------------------------------------------------------------
 ----------------------------------------------------------------
 Z-matrix   Atomic            Coordinates (in bohr)
  Symbol    Number           X              Y              Z
 ----------------------------------------------------------------
     H         1         0.00000000    -1.42462544     0.99592406
     O         8         0.00000000     0.00000000    -0.12550454
     H         1         0.00000000     1.42462544     0.99592406
 ----------------------------------------------------------------
   Interatomic distance matrix (Angstroms) 
 
                 H             O             H    
                [ 1]        [ 2]        [ 3]
  H    [ 1]     0.00000
  O    [ 2]     0.95943     0.00000
  H    [ 3]     1.50776     0.95943     0.00000
   Rotational constants (in cm-1): 
          9.4921213219            26.7412364041            14.7155989763
   Rotational constants (in MHz): 
     284566.6781397471        801682.2114680713        441162.6206098725
  There is   1 frozen-core orbital.
  There are   58 basis functions.
                0.75 seconds walltime passed
 --executable xjoda finished with status            0
 --invoking executable xvmol
 Serial version of molecule started
 
    -------------------------------------------------------------------
                    Input from MOL file
    -------------------------------------------------------------------
 INTGRL        1    0    1    0    0    0    0    0    0                        
          *** CFOUR Program System (Release V0.1) ***                           
 FREQ at CCSD(T)/cc-pVTZ level                                                  
     3    0            0.10E-08              0    0                             
    9999.00      3.00                                                           
           1.00000000    1    3    1    1    1                                  
 H #1   0.000000000000000  -1.424625437354358   0.995924057483314               
     5    3                                                                     
    33.8700000000000       6.068000000000000E-003  0.000000000000000E+000       
   0.000000000000000E+000                                                       
    5.09500000000000       4.530800000000000E-002  0.000000000000000E+000       
   0.000000000000000E+000                                                       
    1.15900000000000       0.202822000000000       0.000000000000000E+000       
   0.000000000000000E+000                                                       
   0.325800000000000       0.503903000000000        1.00000000000000            
   0.000000000000000E+000                                                       
   0.102700000000000       0.383421000000000       0.000000000000000E+000       
    1.00000000000000                                                            
     2    2                                                                     
    1.40700000000000        1.00000000000000       0.000000000000000E+000       
   0.388000000000000       0.000000000000000E+000   1.00000000000000            
     1    1                                                                     
    1.05700000000000        1.00000000000000                                    
           8.00000000    1    4    1    1    1    1                             
 O #2   0.000000000000000   0.000000000000000  -0.125504539575084               
    10    4                                                                     
    15330.0000000000       5.080000000000000E-004 -1.150000000000000E-004       
   0.000000000000000E+000  0.000000000000000E+000                               
    2299.00000000000       3.929000000000000E-003 -8.950000000000000E-004       
   0.000000000000000E+000  0.000000000000000E+000                               
    522.400000000000       2.024300000000000E-002 -4.636000000000000E-003       
   0.000000000000000E+000  0.000000000000000E+000                               
    147.300000000000       7.918100000000000E-002 -1.872400000000000E-002       
   0.000000000000000E+000  0.000000000000000E+000                               
    47.5500000000000       0.230687000000000      -5.846300000000000E-002       
   0.000000000000000E+000  0.000000000000000E+000                               
    16.7600000000000       0.433118000000000      -0.136463000000000            
   0.000000000000000E+000  0.000000000000000E+000                               
    6.20700000000000       0.350260000000000      -0.175740000000000            
   0.000000000000000E+000  0.000000000000000E+000                               
    1.75200000000000       4.272800000000000E-002  0.160934000000000            
    1.00000000000000       0.000000000000000E+000                               
   0.688200000000000      -8.154000000000000E-003  0.603418000000000            
   0.000000000000000E+000  0.000000000000000E+000                               
   0.238400000000000       2.381000000000000E-003  0.378765000000000            
   0.000000000000000E+000   1.00000000000000                                    
     5    3                                                                     
    34.4600000000000       1.592800000000000E-002  0.000000000000000E+000       
   0.000000000000000E+000                                                       
    7.74900000000000       9.974000000000000E-002  0.000000000000000E+000       
   0.000000000000000E+000                                                       
    2.28000000000000       0.310492000000000       0.000000000000000E+000       
   0.000000000000000E+000                                                       
   0.715600000000000       0.491026000000000        1.00000000000000            
   0.000000000000000E+000                                                       
   0.214000000000000       0.336337000000000       0.000000000000000E+000       
    1.00000000000000                                                            
     2    2                                                                     
    2.31400000000000        1.00000000000000       0.000000000000000E+000       
   0.645000000000000       0.000000000000000E+000   1.00000000000000            
     1    1                                                                     
    1.42800000000000        1.00000000000000                                    
           1.00000000    1    3    1    1    1                                  
 H #3   0.000000000000001   1.424625437354359   0.995924057483313               
     5    3                                                                     
    33.8700000000000       6.068000000000000E-003  0.000000000000000E+000       
   0.000000000000000E+000                                                       
    5.09500000000000       4.530800000000000E-002  0.000000000000000E+000       
   0.000000000000000E+000                                                       
    1.15900000000000       0.202822000000000       0.000000000000000E+000       
   0.000000000000000E+000                                                       
   0.325800000000000       0.503903000000000        1.00000000000000            
   0.000000000000000E+000                                                       
   0.102700000000000       0.383421000000000       0.000000000000000E+000       
    1.00000000000000                                                            
     2    2                                                                     
    1.40700000000000        1.00000000000000       0.000000000000000E+000       
   0.388000000000000       0.000000000000000E+000   1.00000000000000            
     1    1                                                                     
    1.05700000000000        1.00000000000000                                    
 FINISH                                                                         
 
    -------------------------------------------------------------------
 
 One- and two-electron integrals over symmetry-adapted AOs are calculated.

  Spherical harmonics are used.
  
  Integrals less than  0.10E-13 are neglected.

  Nuclear repulsion energy :    9.1758650877 a.u.
  required memory for a1 array                5020257  words 
  required memory for a2 array                2070308  words 
 basis number:   1    15
 basis number:   8    35
 basis number:   1    15
  @GETMEM-I,   Allocated      69 MB of main memory.
  @MOLECU-I, One electron integrals required         0.01000 seconds.
  @TWOEL-I,     682513 integrals of symmetry type  I I I I
  @TWOEL-I, Total number of 2-e integrals     682513.
  @MOLECU-I, Two electron integrals required         0.37000 seconds.
  @CHECKOUT-I, Total execution time :       0.3900 seconds.
                0.50 seconds walltime passed
 --executable xvmol finished with status            0
 --invoking executable xvmol2ja
  @GETMEM-I,   Allocated    5722 MB of main memory.
  @CHECKOUT-I, Total execution time :       0.0100 seconds.
                0.00 seconds walltime passed
 --executable xvmol2ja finished with status            0
 --invoking executable xvscf
 NSOSCF                     0
  There are   58 functions in the AO basis.

  There are 1 irreducible representations.

       Irrep        # of functions
         1                 58


  Parameters for SCF calculation: 
        SCF reference function:  RHF  
  Maximum number of iterations:  150
     Full symmetry point group: C2v 
     Computational point group: C1  
        Initial density matrix: MOREAD                 
     SCF convergence tolerance: 10**(- 7)
  DIIS convergence acceleration:  ON
          Latest start for DIIS:   8
                     DIIS order:   6

  Memory information:     208364 words required.
  Fock matrices are constructed from AO integral file.
  @GETMEM-I,   Allocated       1 MB of main memory.
  Initialization and symmetry analysis required      0.000 seconds.

  @INITGES-I, Occupancies from core Hamiltonian:

          Alpha population by irrep:   5
           Beta population by irrep:   5


 total no. of electrons in initial guess :  0.000000000000000E+000
  --------------------------------------------------------------------
  Iteration         Total Energy            Largest Density Difference
  --------------------------------------------------------------------
       0             9.175865087715255              0.0000000000D+00
       1           -61.402597664625432              0.1204614585D+02
       2           -66.688578420347852              0.1299971649D+02
       3           -71.741596137217158              0.1295816147D+02
       4           -70.195105312233849              0.1040818963D+02
       5           -73.092420959288518              0.1037925749D+02
       6           -72.893482270221355              0.6396938283D+01
       7           -74.299592025868108              0.6466001243D+01
       8           -75.114494319128326              0.3092003685D+01
       9           -76.040212993062752              0.1042852259D+01
      10           -76.056727683984533              0.1457194986D+00
      11           -76.056938241141424              0.1220840504D-01
      12           -76.056945605439552              0.4655436549D-02
      13           -76.056946161385426              0.1238262019D-02
      14           -76.056946192753117              0.2918408056D-03
      15           -76.056946193044737              0.2497856537D-04
      16           -76.056946193049910              0.5386019916D-05
      17           -76.056946193050578              0.1573704673D-05
      18           -76.056946193050379              0.2641212680D-06

  SCF has converged.

 save density matrix on hard disk
 total electron number:   10.0000000000000     
     E(SCF)=       -76.056946193050692              0.3697220863D-07

  Eigenvector printing suppressed.

 @PUTMOS-I, Writing converged MOs to NEWMOS. 
 @PUTMOS-I, Symmetry   1 Full  14 Partial   2


 
  ORBITAL EIGENVALUES (ALPHA)  (1H = 27.2113838 eV)

       MO #        E(hartree)               E(eV)           FULLSYM    COMPSYM
       ----   --------------------   --------------------   -------   ---------
    1     1         -20.5555848492        -559.3459089662      A1         A (1)
    2     2          -1.3452404008         -36.6058528752      A1         A (1)
    3     3          -0.7068046986         -19.2331339384      B2         A (1)
    4     4          -0.5791550872         -15.7596113684      A1         A (1)
    5     5          -0.5046075622         -13.7310700538      B1         A (1)
  +++++++++++++++++++++++++++++++++++++++++++++++++++++++++++++++++++++++++++++
    6     6           0.1418637621           3.8603092801      A1         A (1)
    7     7           0.2040461239           5.5523773952      B2         A (1)
    8     8           0.5417480381          14.7417137984      B2         A (1)
    9     9           0.6043545363          16.4453232514      A1         A (1)
   10    10           0.6679734914          18.1764830560      A1         A (1)
   11    11           0.7872113969          21.4211114669      B1         A (1)
   12    12           0.7957921521          21.6546056906      A1         A (1)
   13    13           0.8057534386          21.9256660820      B2         A (1)
   14    14           0.8626484683          23.4738585711      A2         A (1)
   15    15           0.9510962003          25.8806437564      B1         A (1)
   16    16           1.1344297443          30.8694031895      A1         A (1)
   17    17           1.1985398153          32.6139269362      B2         A (1)
   18    18           1.5227592716          41.4363870038      B2         A (1)
   19    19           1.5649809342          42.5852968719      A1         A (1)
   20    20           2.0403013108          55.5194220754      B1         A (1)
   21    21           2.0548656874          55.9157389177      B2         A (1)
   22    22           2.0631496372          56.1411566545      A2         A (1)
   23    23           2.1724502495          59.1153775686      A1         A (1)
   24    24           2.2336076178          60.7795541916      A1         A (1)
   25    25           2.5843577390          70.3239503624      A1         A (1)
   26    26           2.9647672837          80.6754204912      B2         A (1)
   27    27           3.3469856058          91.0761099588      B1         A (1)
   28    28           3.4854129547          94.8429096801      A1         A (1)
   29    29           3.5881134098          97.6375311814      A2         A (1)
   30    30           3.6590774520          99.5685609709      B2         A (1)
   31    31           3.7975629071         103.3369418439      B1         A (1)
   32    32           3.8764357732         105.4831816758      B2         A (1)
   33    33           3.8867712462         105.7644241981      A1         A (1)
   34    34           3.9634063496         107.8497714119      A2         A (1)
   35    35           4.0168128256         109.3030355294      B1         A (1)
   36    36           4.0726421527         110.8222287756      B2         A (1)
   37    37           4.1911503346         114.0470003991      A1         A (1)
   38    38           4.3058229956         117.1674021928      A2         A (1)
   39    39           4.3748393179         119.0454318278      A1         A (1)
   40    40           4.5942623937         125.0162373635      B2         A (1)
   41    41           4.6820996834         127.4064115658      B1         A (1)
   42    42           4.8616678667         132.2927103248      B2         A (1)
   43    43           5.1570332611         140.3300114371      A1         A (1)
   44    44           5.2501317755         142.8633508472      A1         A (1)
   45    45           5.5238141414         150.3106267500      B2         A (1)
   46    46           6.0516247577         164.6730840146      B1         A (1)
   47    47           6.5746391187         178.9050285343      A1         A (1)
   48    48           6.9139030085         188.1368684543      B1         A (1)
   49    49           6.9378076945         188.7873480405      A2         A (1)
   50    50           7.0043052457         190.5968384304      B1         A (1)
   51    51           7.0173797861         190.9526147686      A1         A (1)
   52    52           7.0369601549         191.4854236985      B2         A (1)
   53    53           7.1761020453         195.2716670827      A1         A (1)
   54    54           7.2350693736         196.8762496852      A2         A (1)
   55    55           7.4490525846         202.6990289731      A1         A (1)
   56    56           7.7931109499         212.0613332074      B2         A (1)
   57    57           8.2867640511         225.4943172181      B2         A (1)
   58    58          12.8368013147         349.3071275897      A1         A (1)


  VSCF finished.

  @CHECKOUT-I, Total execution time :       0.3000 seconds.
                0.50 seconds walltime passed
 --executable xvscf finished with status            0
 --invoking executable xvtran
  @GETMEM-I,   Allocated    5722 MB of main memory.
  Partial RHF integral transformation
  Frozen-core orbitals requested within analytic derivative calculation
  Transformation of IIII integrals :
  1 pass through the AO integral file was required.
      682513 AO integrals were read.
      430429 MO integrals were written to HF2.
  Summary of active molecular orbitals: 
------------------------------------------------------------------------
 
  Index      Eigenvalue    Symmetry    Index      Eigenvalue    Symmetry
------------------------------------------------------------------------
     1       -20.5555848        1        30         3.6590775        1
     2        -1.3452404        1        31         3.7975629        1
     3        -0.7068047        1        32         3.8764358        1
     4        -0.5791551        1        33         3.8867712        1
     5        -0.5046076        1        34         3.9634063        1
     6         0.1418638        1        35         4.0168128        1
     7         0.2040461        1        36         4.0726422        1
     8         0.5417480        1        37         4.1911503        1
     9         0.6043545        1        38         4.3058230        1
    10         0.6679735        1        39         4.3748393        1
    11         0.7872114        1        40         4.5942624        1
    12         0.7957922        1        41         4.6820997        1
    13         0.8057534        1        42         4.8616679        1
    14         0.8626485        1        43         5.1570333        1
    15         0.9510962        1        44         5.2501318        1
    16         1.1344297        1        45         5.5238141        1
    17         1.1985398        1        46         6.0516248        1
    18         1.5227593        1        47         6.5746391        1
    19         1.5649809        1        48         6.9139030        1
    20         2.0403013        1        49         6.9378077        1
    21         2.0548657        1        50         7.0043052        1
    22         2.0631496        1        51         7.0173798        1
    23         2.1724502        1        52         7.0369602        1
    24         2.2336076        1        53         7.1761020        1
    25         2.5843577        1        54         7.2350694        1
    26         2.9647673        1        55         7.4490526        1
    27         3.3469856        1        56         7.7931109        1
    28         3.4854130        1        57         8.2867641        1
    29         3.5881134        1        58        12.8368013        1
------------------------------------------------------------------------
  @CHECKOUT-I, Total execution time :       0.0900 seconds.
                0.25 seconds walltime passed
 --executable xvtran finished with status            0
 --invoking executable xintprc
  @GETMEM-I,   Allocated    5722 MB of main memory.
  @GMOIAA-I, Processing MO integrals for spin case AA.
  @GMOIAA-I, Generation of integral list completed.
                      TYPE                NUMBER
                      ----               --------
                      PPPP                     0
                      PPPH                370834
                      PPHH                 34367
                      PHPH                 21209
                      PHHH                  3903
                      HHHH                   116

                     TOTAL                430429

  @FORMT2-I, Second-order MP correlation energies:
              ----------------------------------------------
              E(SCF)                =  -76.056946193051 a.u.
              E2(AA)                =   -0.031781369108 a.u.
              E2(AB)                =   -0.198148416078 a.u.
              E2(TOT)               =   -0.261711154295 a.u.
              Total MP2 energy      =  -76.318657347346 a.u.
              ----------------------------------------------
   Largest T2 amplitudes for spin case AB:
       _       _                 _       _                 _       _
   i   j   a   b             i   j   a   b             i   j   a   b
-----------------------------------------------------------------------------
[  5   5  11  11]-0.04495 [  4   4  10  10]-0.02825 [  5   4  11  10] 0.02754
[  4   5  10  11] 0.02754 [  3   5  13  11] 0.02338 [  5   3  11  13] 0.02338
[  3   3   8   8]-0.02332 [  3   3   9   9]-0.02177 [  3   3  13  13]-0.02148
[  5   3  11   7] 0.02087 [  3   5   7  11] 0.02087 [  4   4   8   8]-0.01955
[  3   3   7   7]-0.01873 [  4   3  10  13]-0.01862 [  3   4  13  10]-0.01862
-----------------------------------------------------------------------------
   Norm of T2AB vector (    70225 symmetry allowed elements):  0.2120032543.
-----------------------------------------------------------------------------
  @CHECKOUT-I, Total execution time :       0.0800 seconds.
                0.75 seconds walltime passed
 --executable xintprc finished with status            0
 --invoking executable xvcc
  @GETMEM-I,   Allocated    5722 MB of main memory.
   CCSD(T) energy will be calculated.
   The total correlation energy is -0.261711154295 a.u.
  W(abef) AB contribution =  0.0430915237 a.u.
   The total correlation energy is -0.262027959396 a.u.
  Convergence information after     1 iterations: 
  Largest element of residual vector : -0.58669514E-02.
  Largest element of DIIS residual   : -0.58669514E-02.
  W(abef) AB contribution =  0.0461211422 a.u.
   The total correlation energy is -0.266778540981 a.u.
  Convergence information after     2 iterations: 
  Largest element of residual vector : -0.22457406E-02.
  Largest element of DIIS residual   : -0.23017304E-02.
  W(abef) AB contribution =  0.0489392821 a.u.
   The total correlation energy is -0.267156938307 a.u.
  Convergence information after     3 iterations: 
  Largest element of residual vector :  0.83356366E-03.
  Largest element of DIIS residual   :  0.75660622E-03.
  W(abef) AB contribution =  0.0498382644 a.u.
   The total correlation energy is -0.267576152956 a.u.
  Convergence information after     4 iterations: 
  Largest element of residual vector :  0.11768838E-03.
  Largest element of DIIS residual   : -0.91922491E-04.
  W(abef) AB contribution =  0.0499132245 a.u.
   The total correlation energy is -0.267597399070 a.u.
  Convergence information after     5 iterations: 
  Largest element of residual vector :  0.13159450E-03.
  Largest element of DIIS residual   :  0.84227261E-04.
  W(abef) AB contribution =  0.0499342098 a.u.
   The total correlation energy is -0.267598822100 a.u.
  Convergence information after     6 iterations: 
  Largest element of residual vector :  0.41708143E-04.
  Largest element of DIIS residual   :  0.24204678E-04.
  W(abef) AB contribution =  0.0499326209 a.u.
   The total correlation energy is -0.267599030939 a.u.
  Convergence information after     7 iterations: 
  Largest element of residual vector :  0.22105688E-04.
  Largest element of DIIS residual   :  0.68615567E-05.
  W(abef) AB contribution =  0.0499338053 a.u.
   The total correlation energy is -0.267599048908 a.u.
  Convergence information after     8 iterations: 
  Largest element of residual vector :  0.44222332E-05.
  Largest element of DIIS residual   :  0.12703077E-05.
  W(abef) AB contribution =  0.0499332840 a.u.
   The total correlation energy is -0.267599117385 a.u.
  Convergence information after     9 iterations: 
  Largest element of residual vector :  0.84401072E-06.
  Largest element of DIIS residual   : -0.25949066E-06.
  W(abef) AB contribution =  0.0499333480 a.u.
   The total correlation energy is -0.267599087534 a.u.
  Convergence information after    10 iterations: 
  Largest element of residual vector :  0.28896143E-06.
  Largest element of DIIS residual   :  0.75684354E-07.
  W(abef) AB contribution =  0.0499333268 a.u.
   The total correlation energy is -0.267599090833 a.u.
  Convergence information after    11 iterations: 
  Largest element of residual vector : -0.21647269E-07.
  Largest element of DIIS residual   :  0.23275610E-07.
  Amplitude equations converged in    11iterations.
   The total correlation energy is -0.267599088931 a.u.
   The CC iterations have converged.

   Largest T1 amplitudes for spin case AA:
   i       a                 i       a                 i       a    
-----------------------------------------------------------------------------
[  5      11    ]-0.00752 [  4       6    ] 0.00585 [  3      18    ]-0.00582
[  5      15    ]-0.00493 [  4      12    ]-0.00456 [  4      19    ]-0.00419
[  2      10    ]-0.00402 [  4      10    ] 0.00386 [  3      36    ]-0.00385
[  4      37    ]-0.00379 [  5      31    ]-0.00323 [  3      13    ]-0.00288
[  5      35    ] 0.00274 [  3       7    ] 0.00271 [  3      40    ]-0.00260
-----------------------------------------------------------------------------
   Norm of T1AA vector (      265 symmetry allowed elements):  0.0185571279.
-----------------------------------------------------------------------------
   Largest T2 amplitudes for spin case AB:
       _       _                 _       _                 _       _
   i   j   a   b             i   j   a   b             i   j   a   b
-----------------------------------------------------------------------------
[  5   5  11  11]-0.04766 [  4   4  10  10]-0.02958 [  3   3   8   8]-0.02708
[  5   4  11  10] 0.02593 [  4   5  10  11] 0.02593 [  3   3   9   9]-0.02533
[  3   3  13  13]-0.02267 [  5   3  11  13] 0.02227 [  3   5  13  11] 0.02227
[  4   4   8   8]-0.02216 [  3   3   7   7]-0.01962 [  5   3  11   7] 0.01931
[  3   5   7  11] 0.01931 [  3   3  13   7]-0.01923 [  3   3   7  13]-0.01923
-----------------------------------------------------------------------------
   Norm of T2AB vector (    70225 symmetry allowed elements):  0.2294765169.
-----------------------------------------------------------------------------
       Summary of iterative solution of CC equations 
      -----------------------------------------------------------
                       Correlation           Total
       Iteration         Energy              Energy
      -----------------------------------------------------------
            0        -0.261711154295     -76.318657347346  DIIS 
            1        -0.262027959396     -76.318974152447  DIIS 
            2        -0.266778540981     -76.323724734032  DIIS 
            3        -0.267156938307     -76.324103131358  DIIS 
            4        -0.267576152956     -76.324522346007  DIIS 
            5        -0.267597399070     -76.324543592120  DIIS 
            6        -0.267598822100     -76.324545015151  DIIS 
            7        -0.267599030939     -76.324545223990  DIIS 
            8        -0.267599048908     -76.324545241959  DIIS 
            9        -0.267599117385     -76.324545310436  DIIS 
           10        -0.267599087534     -76.324545280585  DIIS 
           11        -0.267599088931     -76.324545281981  DIIS 
      -----------------------------------------------------------
      A miracle has come to pass. The CC iterations have converged.
        E(CCSD)           =     -76.324545281981
        E(CCSD + T(CCSD)) =     -76.332410226899
        E(CCSD(T))        =     -76.332216516756
  @CHECKOUT-I, Total execution time :       3.9300 seconds.
 --executable xvcc finished with status            0
 --invoking executable xlambda
  @GETMEM-I,   Allocated    5722 MB of main memory.
  The Lambda equations are solved for CCSD(T).
  Initial lambda amplitudes: 
  W(abef) AB contribution =  0.0499502717 a.u.
   Frozen core orbitals in analytic derivative calculation
  Convergence information after     1 iterations: 
  Largest element of residual vector : -0.38226913E-02.
  Largest element of DIIS residual   : -0.38226913E-02.
  W(abef) AB contribution =  0.0536424057 a.u.
   Frozen core orbitals in analytic derivative calculation
  Convergence information after     2 iterations: 
  Largest element of residual vector :  0.11822558E-02.
  Largest element of DIIS residual   :  0.80638421E-03.
  W(abef) AB contribution =  0.0531936662 a.u.
   Frozen core orbitals in analytic derivative calculation
  Convergence information after     3 iterations: 
  Largest element of residual vector :  0.26427701E-03.
  Largest element of DIIS residual   :  0.15544384E-03.
  W(abef) AB contribution =  0.0532564440 a.u.
   Frozen core orbitals in analytic derivative calculation
  Convergence information after     4 iterations: 
  Largest element of residual vector :  0.16040376E-03.
  Largest element of DIIS residual   :  0.13297404E-03.
  W(abef) AB contribution =  0.0532734562 a.u.
   Frozen core orbitals in analytic derivative calculation
  Convergence information after     5 iterations: 
  Largest element of residual vector :  0.74877306E-04.
  Largest element of DIIS residual   :  0.27411775E-04.
  W(abef) AB contribution =  0.0532816369 a.u.
   Frozen core orbitals in analytic derivative calculation
  Convergence information after     6 iterations: 
  Largest element of residual vector :  0.22851189E-04.
  Largest element of DIIS residual   :  0.68378674E-05.
  W(abef) AB contribution =  0.0532812297 a.u.
   Frozen core orbitals in analytic derivative calculation
  Convergence information after     7 iterations: 
  Largest element of residual vector :  0.52185323E-05.
  Largest element of DIIS residual   : -0.18659735E-05.
  W(abef) AB contribution =  0.0532805634 a.u.
   Frozen core orbitals in analytic derivative calculation
  Convergence information after     8 iterations: 
  Largest element of residual vector :  0.89921346E-06.
  Largest element of DIIS residual   : -0.22786331E-06.
  W(abef) AB contribution =  0.0532804596 a.u.
   Frozen core orbitals in analytic derivative calculation
  Convergence information after     9 iterations: 
  Largest element of residual vector : -0.18219691E-06.
  Largest element of DIIS residual   :  0.63160665E-07.
  Amplitude equations converged in     9 iterations.
 
  Full Fbar is constructed for CCSD second derivatives
 
      The lambda equations have converged.
  @CHECKOUT-I, Total execution time :       1.8700 seconds.
 --executable xlambda finished with status            0
 --invoking executable xdens
  @GETMEM-I,   Allocated    5722 MB of main memory.
  CCSD(T) density and intermediates are calculated.
  The perturbed orbitals are chosen canonical.
  Direct algorithm used for all contributions involving G(AB,CD).
  W(abef) AB contribution =  0.0639850559 a.u.
  W(abef) AB contribution =  0.0671920673 a.u.
                     1                     1
 Total CPU time :   0.139999985694885     
  processed                 682513  ao basis integrals from 
                  1138  buffers.
  The iterative expansion of D(ai) converged after  16 iterations.
  ----------------------------------------------------------------------
                 Natural orbital occupation numbers
  ----------------------------------------------------------------------
  2.00000  1.98046  1.96378  1.95898  1.95795  0.02928  0.02693  0.01993
  0.01318  0.00759  0.00730  0.00724  0.00644  0.00642  0.00145  0.00145
  0.00114  0.00112  0.00102  0.00092  0.00081  0.00080  0.00077  0.00058
  0.00051  0.00048  0.00046  0.00042  0.00042  0.00037  0.00021  0.00021
  0.00014  0.00014  0.00013  0.00012  0.00010  0.00008  0.00008  0.00007
  0.00007  0.00007  0.00006  0.00006  0.00005  0.00005  0.00005  0.00003
  0.00002  0.00001  0.00001  0.00001  0.00001  0.00001  0.00001  0.00001
  0.00000  0.00000
  Trace of density matrix :  10.0000000000.
  ----------------------------------------------------------------------
  Density calculation successfully completed.
  @CHECKOUT-I, Total execution time :       0.7000 seconds.
                0.75 seconds walltime passed
 --executable xdens finished with status            0
 --invoking executable xvdint
  @GETMEM-I,   Allocated    5722 MB of main memory.
 One- and two-electron integral derivatives are calculated
 for RHF-CC/MBPT hessians and dipole derivatives.
 Spherical gaussians are used.
  Evaluation of 1e integral derivatives required    0.05 seconds.
  Evaluation of 2el integral derivatives
  Evaluation of 2e integral derivatives required    1.51 seconds.
  @CHECKOUT-I, Total execution time :       1.5600 seconds.
                1.75 seconds walltime passed
 --executable xvdint finished with status            0
 --invoking executable xcphf
  @GETMEM-I,   Allocated    5722 MB of main memory.
 Coupled-perturbed HF (CPHF) equations 
 are solved for RHF-CC/MBPT hessian and dipole derivatives.
  relativistic is                     12
  efields on                    10
  efields on                    11
  efields on                    12
 There are 12 perturbations within irrep 1.
 CPHF converged after  22 iterations.
  Calculation of total derivative of f                    12
  Tolerances in treatment of perturbed canonical orbitals:
     Tol1:    0.00001000 Tol2:   25.00000000
  uij elements
 0.0000000  0.0000000  0.0000000  0.0000000 -0.0002049  0.0000000  0.0000000
 0.0000000  0.0000000  0.0413274  0.0000000  0.0000000  0.0000000  0.0000000
 0.2170160  0.0000000  0.0000000  0.0000000  0.0000000  0.3597088  0.0029290
-0.0767741 -0.3247307 -0.4225236  0.0000000
  canonical perturbed fock matrix
 0.0000000  0.0000000  0.0000000  0.0000000  0.0000000  0.0000000  0.0000000
 0.0000000  0.0000000  0.0000000  0.0000000  0.0000000  0.0000000  0.0000000
 0.0000000  0.0000000  0.0000000  0.0000000  0.0000000  0.0000000  0.0000000
 0.0000000  0.0000000  0.0000000  0.0000000
  Tolerances in treatment of perturbed canonical orbitals:
     Tol1:    0.00001000 Tol2:   25.00000000
  uij elements
-0.0001257  0.0001048  0.0005168  0.0000219  0.0000000 -0.0117013 -0.0452721
 0.1525023  0.1065776  0.0000000 -0.0274882 -0.2505650  0.0354050  0.5111397
 0.0000000 -0.0138498 -0.1851613 -0.5145958 -0.0260040  0.0000000  0.0000000
 0.0000000  0.0000000  0.0000000 -0.0113871
  canonical perturbed fock matrix
 0.0274284  0.0000000  0.0000000  0.0000000  0.0000000  0.0000000 -0.1224249
 0.0000000  0.0000000  0.0000000  0.0000000  0.0000000 -0.0751953  0.0000000
 0.0000000  0.0000000  0.0000000  0.0000000 -0.0786314  0.0000000  0.0000000
 0.0000000  0.0000000  0.0000000 -0.0232105
  Tolerances in treatment of perturbed canonical orbitals:
     Tol1:    0.00001000 Tol2:   25.00000000
  uij elements
 0.0001144 -0.0002048 -0.0002125 -0.0003426  0.0000000  0.0095323  0.0287971
-0.1494807 -0.0392392  0.0000000  0.0207823  0.2354672  0.0466298 -0.1983030
 0.0000000  0.0136643  0.0553526  0.1435835 -0.0407383  0.0000000  0.0000000
 0.0000000  0.0000000  0.0000000  0.0085430
  canonical perturbed fock matrix
-0.0413736  0.0000000  0.0000000  0.0000000  0.0000000  0.0000000  0.0655399
 0.0000000  0.0000000  0.0000000  0.0000000  0.0000000  0.1367196  0.0000000
 0.0000000  0.0000000  0.0000000  0.0000000 -0.0182975  0.0000000  0.0000000
 0.0000000  0.0000000  0.0000000  0.0048845
  Tolerances in treatment of perturbed canonical orbitals:
     Tol1:    0.00001000 Tol2:   25.00000000
  uij elements
 0.0000000  0.0000000  0.0000000  0.0000000  0.0004098  0.0000000  0.0000000
 0.0000000  0.0000000 -0.0826547  0.0000000  0.0000000  0.0000000  0.0000000
 0.0000000  0.0000000  0.0000000  0.0000000  0.0000000 -0.7194177 -0.0058580
 0.1535483  0.0000000  0.8450473  0.0000000
  canonical perturbed fock matrix
 0.0000000  0.0000000  0.0000000  0.0000000  0.0000000  0.0000000  0.0000000
 0.0000000  0.0000000  0.0000000  0.0000000  0.0000000  0.0000000  0.0000000
 0.0000000  0.0000000  0.0000000  0.0000000  0.0000000  0.0000000  0.0000000
 0.0000000  0.0000000  0.0000000  0.0000000
  Tolerances in treatment of perturbed canonical orbitals:
     Tol1:    0.00001000 Tol2:   25.00000000
  uij elements
 0.0000000  0.0000000 -0.0010335  0.0000000  0.0000000  0.0000000  0.0000000
-0.3050046  0.0000000  0.0000000  0.0549764  0.5011301  0.0000000 -1.0222795
 0.0000000  0.0000000  0.0000000  1.0291915  0.0000000  0.0000000  0.0000000
 0.0000000  0.0000000  0.0000000  0.0000000
  canonical perturbed fock matrix
 0.0000000  0.0000000  0.0000000  0.0000000  0.0000000  0.0000000  0.0000000
 0.0000000  0.0000000  0.0000000  0.0000000  0.0000000  0.0000000  0.0000000
 0.0000000  0.0000000  0.0000000  0.0000000  0.0000000  0.0000000  0.0000000
 0.0000000  0.0000000  0.0000000  0.0000000
  Tolerances in treatment of perturbed canonical orbitals:
     Tol1:    0.00001000 Tol2:   25.00000000
  uij elements
-0.0002289  0.0004096  0.0000000  0.0006852  0.0000000 -0.0190647 -0.0575943
 0.0000000  0.0784784  0.0000000  0.0000000  0.0000000 -0.0932596  0.0000000
 0.0000000 -0.0273287 -0.1107052  0.0000000  0.0814767  0.0000000  0.0000000
 0.0000000  0.0000000  0.0000000 -0.0170861
  canonical perturbed fock matrix
 0.0827472  0.0000000  0.0000000  0.0000000  0.0000000  0.0000000 -0.1310799
 0.0000000  0.0000000  0.0000000  0.0000000  0.0000000 -0.2734392  0.0000000
 0.0000000  0.0000000  0.0000000  0.0000000  0.0365949  0.0000000  0.0000000
 0.0000000  0.0000000  0.0000000 -0.0097690
  Tolerances in treatment of perturbed canonical orbitals:
     Tol1:    0.00001000 Tol2:   25.00000000
  uij elements
 0.0000000  0.0000000  0.0000000  0.0000000 -0.0002049  0.0000000  0.0000000
 0.0000000  0.0000000  0.0413274  0.0000000  0.0000000  0.0000000  0.0000000
-0.2170160  0.0000000  0.0000000  0.0000000  0.0000000  0.3597088  0.0029290
-0.0767741  0.3247307 -0.4225236  0.0000000
  canonical perturbed fock matrix
 0.0000000  0.0000000  0.0000000  0.0000000  0.0000000  0.0000000  0.0000000
 0.0000000  0.0000000  0.0000000  0.0000000  0.0000000  0.0000000  0.0000000
 0.0000000  0.0000000  0.0000000  0.0000000  0.0000000  0.0000000  0.0000000
 0.0000000  0.0000000  0.0000000  0.0000000
  Tolerances in treatment of perturbed canonical orbitals:
     Tol1:    0.00001000 Tol2:   25.00000000
  uij elements
 0.0001257 -0.0001048  0.0005168 -0.0000219  0.0000000  0.0117013  0.0452721
 0.1525023 -0.1065776  0.0000000 -0.0274882 -0.2505650 -0.0354050  0.5111397
 0.0000000  0.0138498  0.1851613 -0.5145958  0.0260040  0.0000000  0.0000000
 0.0000000  0.0000000  0.0000000  0.0113871
  canonical perturbed fock matrix
-0.0274284  0.0000000  0.0000000  0.0000000  0.0000000  0.0000000  0.1224249
 0.0000000  0.0000000  0.0000000  0.0000000  0.0000000  0.0751953  0.0000000
 0.0000000  0.0000000  0.0000000  0.0000000  0.0786314  0.0000000  0.0000000
 0.0000000  0.0000000  0.0000000  0.0232105
  Tolerances in treatment of perturbed canonical orbitals:
     Tol1:    0.00001000 Tol2:   25.00000000
  uij elements
 0.0001144 -0.0002048  0.0002125 -0.0003426  0.0000000  0.0095323  0.0287971
 0.1494807 -0.0392392  0.0000000 -0.0207823 -0.2354672  0.0466298  0.1983030
 0.0000000  0.0136643  0.0553526 -0.1435835 -0.0407383  0.0000000  0.0000000
 0.0000000  0.0000000  0.0000000  0.0085430
  canonical perturbed fock matrix
-0.0413736  0.0000000  0.0000000  0.0000000  0.0000000  0.0000000  0.0655399
 0.0000000  0.0000000  0.0000000  0.0000000  0.0000000  0.1367196  0.0000000
 0.0000000  0.0000000  0.0000000  0.0000000 -0.0182975  0.0000000  0.0000000
 0.0000000  0.0000000  0.0000000  0.0048845
  Tolerances in treatment of perturbed canonical orbitals:
     Tol1:    0.00001000 Tol2:   25.00000000
  uij elements
 0.0000000  0.0000000  0.0000000  0.0000000  0.0031751  0.0000000  0.0000000
 0.0000000  0.0000000  0.4473998  0.0000000  0.0000000  0.0000000  0.0000000
 0.0000000  0.0000000  0.0000000  0.0000000  0.0000000 -1.6861674 -0.0031751
-0.4473998  0.0000000  1.6861674  0.0000000
  canonical perturbed fock matrix
 0.0000000  0.0000000  0.0000000  0.0000000  0.0000000  0.0000000  0.0000000
 0.0000000  0.0000000  0.0000000  0.0000000  0.0000000  0.0000000  0.0000000
 0.0000000  0.0000000  0.0000000  0.0000000  0.0000000  0.0000000  0.0000000
 0.0000000  0.0000000  0.0000000  0.0000000
  Tolerances in treatment of perturbed canonical orbitals:
     Tol1:    0.00001000 Tol2:   25.00000000
  uij elements
 0.0000000  0.0000000 -0.0019865  0.0000000  0.0000000  0.0000000  0.0000000
-0.5948125  0.0000000  0.0000000  0.0019865  0.5948125  0.0000000  0.1596644
 0.0000000  0.0000000  0.0000000 -0.1596644  0.0000000  0.0000000  0.0000000
 0.0000000  0.0000000  0.0000000  0.0000000
  canonical perturbed fock matrix
 0.0000000  0.0000000  0.0000000  0.0000000  0.0000000  0.0000000  0.0000000
 0.0000000  0.0000000  0.0000000  0.0000000  0.0000000  0.0000000  0.0000000
 0.0000000  0.0000000  0.0000000  0.0000000  0.0000000  0.0000000  0.0000000
 0.0000000  0.0000000  0.0000000  0.0000000
  Tolerances in treatment of perturbed canonical orbitals:
     Tol1:    0.00001000 Tol2:   25.00000000
  uij elements
 0.0000000 -0.0010437  0.0000000  0.0030657  0.0000000  0.0010437  0.0000000
 0.0000000  0.4623642  0.0000000  0.0000000  0.0000000  0.0000000  0.0000000
 0.0000000 -0.0030657 -0.4623642  0.0000000  0.0000000  0.0000000  0.0000000
 0.0000000  0.0000000  0.0000000  0.0000000
  canonical perturbed fock matrix
-0.3821423  0.0000000  0.0000000  0.0000000  0.0000000  0.0000000 -0.3439615
 0.0000000  0.0000000  0.0000000  0.0000000  0.0000000 -0.3129970  0.0000000
 0.0000000  0.0000000  0.0000000  0.0000000 -0.0506749  0.0000000  0.0000000
 0.0000000  0.0000000  0.0000000 -0.2412018

                     SCF static dipole polarizability
                     --------------------------------

                         Ex          Ey          Ez

            Ex       5.110188    0.000000    0.000000
            Ey       0.000000    8.025585    0.000000
            Ez       0.000000    0.000000    6.781179


  @CHECKOUT-I, Total execution time :       0.0600 seconds.
                0.25 seconds walltime passed
 --executable xcphf finished with status            0
 --invoking executable xsdcc
  @GETMEM-I,   Allocated    5722 MB of main memory.
  relativistic                     0
 Vibrational frequencies and infrared intensities are calculated
 at the CCSD(T) level within the harmonic approximation.
 G(ab,cd) and dG(ab,cd)/dx are not explicitly calculated.
 AO based algorithm is used.
 Perturbed canonical orbitals are used.
 CPHF coefficients for vrt-vrt block: U^x(a,b) = -1/2 S^x(a,b)
                     1                     1
 Total CPU time :   0.139999985694885     
 processed     619090 ao basis integrals from        152 buffers 
                     1                     1
 Total CPU time :   0.160000085830688     
 processed       682513 ao basis integrals from       1138 buffers 
                     1                     1
 Total CPU time :   0.159999966621399     
 processed       682513 ao basis integrals from       1138 buffers 
                     1                     1
 Total CPU time :   0.159999847412109     
 processed       682513 ao basis integrals from       1138 buffers 
 Transformation of derivative integrals from AO to MO basis:
 RHF transformation
 Transformation of DIIII integral derivatives.
 1 pass through the AO integral derivative file was needed.
    619090 AO integral derivatives were read from file DIIII.
 Transformation of first index required    0.1 seconds.
 Transformation of remaining indices required    0.1 seconds.
    962310 MO integral derivatives were written to file DERINT.
 Formation of <ab||ci>^chi using AO integrals:
 Transformation of IIII integrals:
 1 pass through the AO integral file was needed.
    682513 AO integrals were read from file IIII.
 Tranformation of first (perturbed) index required   0.1 seconds.
 Tranformation of remaining (unperturbed) indices required   0.0 seconds.
        MO basis integral derivatives are being calculated
             (Symmetry block 1, perturbation   4)
        First derivative of the wavefunction is calculated
             (Symmetry block 1, perturbation   4)
   Frozen core orbitals in analytic derivative calculation
 Resorts of perturbed amplitudes and integrals required   0.0 seconds.
 Construction of <Phi|(dH_N/dx exp(T))c|0> required   0.2 seconds.
 Starting iterative solution of the perturbed CC equations.
 The DIIS procedure is used to accelerate convergence.
 Convergence criterion is 10**(-7).
 Maximum number of iterations is  50.
   Frozen core orbitals in analytic derivative calculation
   Frozen core orbitals in analytic derivative calculation
 Convergence information after     1 iterations: 
 Largest element of residual vector :  0.21996406E-01.
 Largest element of DIIS residual   :  0.21996406E-01.
   Frozen core orbitals in analytic derivative calculation
 Convergence information after     2 iterations: 
 Largest element of residual vector : -0.48700532E-02.
 Largest element of DIIS residual   : -0.33859996E-02.
   Frozen core orbitals in analytic derivative calculation
 Convergence information after     3 iterations: 
 Largest element of residual vector : -0.31398780E-02.
 Largest element of DIIS residual   : -0.29812238E-02.
   Frozen core orbitals in analytic derivative calculation
 Convergence information after     4 iterations: 
 Largest element of residual vector : -0.16999244E-02.
 Largest element of DIIS residual   : -0.44566109E-03.
   Frozen core orbitals in analytic derivative calculation
 Convergence information after     5 iterations: 
 Largest element of residual vector : -0.67396386E-03.
 Largest element of DIIS residual   : -0.35236328E-03.
   Frozen core orbitals in analytic derivative calculation
 Convergence information after     6 iterations: 
 Largest element of residual vector : -0.19399331E-03.
 Largest element of DIIS residual   :  0.57111672E-04.
   Frozen core orbitals in analytic derivative calculation
 Convergence information after     7 iterations: 
 Largest element of residual vector : -0.44654334E-04.
 Largest element of DIIS residual   :  0.12815668E-04.
   Frozen core orbitals in analytic derivative calculation
 Convergence information after     8 iterations: 
 Largest element of residual vector :  0.79585753E-05.
 Largest element of DIIS residual   :  0.27966290E-05.
   Frozen core orbitals in analytic derivative calculation
 Convergence information after     9 iterations: 
 Largest element of residual vector :  0.16020224E-05.
 Largest element of DIIS residual   : -0.83202004E-06.
   Frozen core orbitals in analytic derivative calculation
 Convergence information after    10 iterations: 
 Largest element of residual vector :  0.53580946E-06.
 Largest element of DIIS residual   :  0.33083436E-06.
   Frozen core orbitals in analytic derivative calculation
 Convergence information after    11 iterations: 
 Largest element of residual vector : -0.12615511E-06.
 Largest element of DIIS residual   : -0.76702728E-07.
 Perturbed amplitude equations converged in    11 iterations.
  Dominant contributions to perturbed wavefunction:
    5    5   11   10   0.0634431122 ABAB
    5    5   10   11   0.0634431122 ABAB
    5    4   10   10  -0.0495228357 ABAB
    4    5   10   10  -0.0495228357 ABAB
    5    5   24   11   0.0461454035 ABAB
    5    5   11   24   0.0461454035 ABAB
    5    5   58   11  -0.0392721495 ABAB
    5    5   11   58  -0.0392721495 ABAB
    5    3   10   13  -0.0341826134 ABAB
    3    5   13   10  -0.0341826134 ABAB
    5    5   37   11   0.0326719313 ABAB
    5    5   11   37   0.0326719313 ABAB
    5    4   11   11   0.0310405375 ABAB
    4    5   11   11   0.0310405375 ABAB
    5    3   10    7  -0.0283785703 ABAB
    3    5    7   10  -0.0283785703 ABAB
    5    3   24    8  -0.0279512572 ABAB
    3    5    8   24  -0.0279512572 ABAB
    5    5   44   11  -0.0261008205 ABAB
    5    5   11   44  -0.0261008205 ABAB
  Total CCSD gradient is    0.000000000000001.
  norm of converged amps   0.407911448147521     
  There are                     30  ijk combinations. 
 PARA: timing for (T) xsdcc                3.92 seconds.
  total triples energy   0.000000000000000E+000
  total triples energy gradient   2.331182331310407E-016
  total triples energy gradient   4.002112353172412E-017
  total triples energy gradient   0.000000000000000E+000
   Frozen core orbitals in analytic derivative calculation
 Starting iterative solution of the perturbed Lambda equations.
 The DIIS procedure is used to accelerate convergence.
 Convergence criterion is 10**(-7).
 Maximum number of iterations is  50.
   Frozen core orbitals in analytic derivative calculation
 Convergence information after     1 iterations: 
 Largest element of residual vector :  0.19169180E-01.
 Largest element of DIIS residual   :  0.19169180E-01.
   Frozen core orbitals in analytic derivative calculation
 Convergence information after     2 iterations: 
 Largest element of residual vector : -0.45230640E-02.
 Largest element of DIIS residual   : -0.32275786E-02.
   Frozen core orbitals in analytic derivative calculation
 Convergence information after     3 iterations: 
 Largest element of residual vector : -0.29713110E-02.
 Largest element of DIIS residual   : -0.28562788E-02.
   Frozen core orbitals in analytic derivative calculation
 Convergence information after     4 iterations: 
 Largest element of residual vector : -0.16104875E-02.
 Largest element of DIIS residual   : -0.47071585E-03.
   Frozen core orbitals in analytic derivative calculation
 Convergence information after     5 iterations: 
 Largest element of residual vector : -0.64944270E-03.
 Largest element of DIIS residual   : -0.33481988E-03.
   Frozen core orbitals in analytic derivative calculation
 Convergence information after     6 iterations: 
 Largest element of residual vector : -0.18023926E-03.
 Largest element of DIIS residual   :  0.57650578E-04.
   Frozen core orbitals in analytic derivative calculation
 Convergence information after     7 iterations: 
 Largest element of residual vector : -0.39661672E-04.
 Largest element of DIIS residual   :  0.12357694E-04.
   Frozen core orbitals in analytic derivative calculation
 Convergence information after     8 iterations: 
 Largest element of residual vector :  0.76820945E-05.
 Largest element of DIIS residual   :  0.28211370E-05.
   Frozen core orbitals in analytic derivative calculation
 Convergence information after     9 iterations: 
 Largest element of residual vector :  0.16173479E-05.
 Largest element of DIIS residual   : -0.74848781E-06.
   Frozen core orbitals in analytic derivative calculation
 Convergence information after    10 iterations: 
 Largest element of residual vector : -0.43047334E-06.
 Largest element of DIIS residual   :  0.30500594E-06.
   Frozen core orbitals in analytic derivative calculation
 Convergence information after    11 iterations: 
 Largest element of residual vector : -0.14080831E-06.
 Largest element of DIIS residual   : -0.97319087E-07.
 Perturbed Lambda equations converged in    11 iterations.
  Dominant contributions to perturbed wavefunction:
    5    5   11   10   0.0677669866 ABAB
    5    5   10   11   0.0677669866 ABAB
    5    4   10   10  -0.0539999656 ABAB
    4    5   10   10  -0.0539999656 ABAB
    5    5   24   11   0.0495562387 ABAB
    5    5   11   24   0.0495562387 ABAB
    5    5   58   11  -0.0412649082 ABAB
    5    5   11   58  -0.0412649082 ABAB
    5    3   10   13  -0.0369526463 ABAB
    3    5   13   10  -0.0369526463 ABAB
    5    4   11   11   0.0343701240 ABAB
    4    5   11   11   0.0343701240 ABAB
    5    5   37   11   0.0342381157 ABAB
    5    5   11   37   0.0342381157 ABAB
    5    3   10    7  -0.0320041391 ABAB
    3    5    7   10  -0.0320041391 ABAB
    5    3   24    8  -0.0306139510 ABAB
    3    5    8   24  -0.0306139510 ABAB
    5    5   44   11  -0.0276301455 ABAB
    5    5   11   44  -0.0276301455 ABAB
  Total CCSD gradient is    0.000000000000001.
        The first-order density matrix is being calculated 
             (Symmetry block 1, perturbation   4)
  There are                      0  special pairs.
 Calculation of the contributions of <pq||rs> to dI(i,j)/dx
 required   0.0 seconds.
 Calculation of the contributions of <pq||rs> to dI(a,b)/dx
 required   0.7 seconds.
 Calculation of the contributions of <pq||rs> to dI(i,a)/dx
 required   0.1 seconds.
                     1                     1
 Total CPU time :   0.149999618530273     
 processed       682513 ao basis integrals from       1138 buffers 
 First-order Z-vector equations are solved for 1 perturbation.
 Convergence reached after  18 iterations.
        U*G(pq,rs) contribution is being calculated
             (Symmetry block 1, perturbation   4)

 CCSD(T) contribution to force constants 

        0.0000000000        0.0000000000        0.0000000000
        0.0002499405        0.0000000000        0.0000000000
        0.0000000000        0.0000000000        0.0000000000
        0.0000000000        0.0000000000        0.0000000000
        0.0000000000        0.0000000000        0.0000000000
        0.0000000000        0.0000000000        0.0000000000
        0.0000000000        0.0000000000        0.0000000000
        0.0000000000        0.0000000000        0.0000000000
        0.0000000000        0.0000000000        0.0000000000
        0.0005929656        0.0000000000        0.0000000000
       -0.0016858121        0.0000000000        0.0000000000
        0.0005929656        0.0000000000        0.0000000000
        0.0000000000        0.0000000000        0.0000000000
        0.0000000000        0.0000000000        0.0000000000
        0.0000000000        0.0000000000        0.0000000000
        0.0000000000        0.0000000000        0.0000000000
        0.0000000000        0.0000000000        0.0000000000
        0.0000000000        0.0000000000        0.0000000000
        0.0000000000        0.0000000000        0.0000000000
        0.0002499405        0.0000000000        0.0000000000
        0.0000000000        0.0000000000        0.0000000000
        0.0000000000        0.0000000000        0.0000000000
        0.0000000000        0.0000000000        0.0000000000
        0.0000000000        0.0000000000        0.0000000000
        0.0000000000        0.0000000000        0.0000000000
        0.0000000000        0.0000000000        0.0000000000
        0.0000000000        0.0000000000        0.0000000000

 CCSD(T) contribution to dipole derivatives 

        0.0000000000        0.0000000000        0.0000000000
        0.0195369528        0.0000000000        0.0000000000
        0.0000000000        0.0000000000        0.0000000000
        0.0000000000        0.0000000000        0.0000000000
        0.0000000000        0.0000000000        0.0000000000
        0.0000000000        0.0000000000        0.0000000000
        0.0000000000        0.0000000000        0.0000000000
        0.0000000000        0.0000000000        0.0000000000
        0.0000000000        0.0000000000        0.0000000000
  @CHECKOUT-I, Total execution time :      13.8500 seconds.
               15.50 seconds walltime passed
 --executable xsdcc finished with status            0
 --invoking executable xanti
  @GETMEM-I,   Allocated    5722 MB of main memory.
 CCSD(T) MO derivative gammas will be sorted to Mulliken order.
  @CHECKOUT-I, Total execution time :       0.4900 seconds.
                0.50 seconds walltime passed
 --executable xanti finished with status            0
 --invoking executable xbcktrn
  @GETMEM-I,   Allocated    5722 MB of main memory.
  @CHECKOUT-I, Total execution time :       0.3900 seconds.
                0.50 seconds walltime passed
 --executable xbcktrn finished with status            0
 --invoking executable xvdint
  @GETMEM-I,   Allocated    5722 MB of main memory.
 One- and two-electron integral derivatives are calculated
 for RHF-CC/MBPT hessians and dipole derivatives.
 Spherical gaussians are used.
  Evaluation of 2el integral derivatives

                      Two-electron integral gradient
                      ------------------------------

 H #1      -0.1253081339            0.0000000000            0.0000000000
 O #2       0.2506162678            0.0000000000            0.0000000000
 H #3      -0.1253081339            0.0000000000            0.0000000000


  Evaluation of 2e integral derivatives required    1.15 seconds.
  contribution to Hessian
       -0.1253081339        0.0000000000        0.0000000000
        0.2506162678        0.0000000000        0.0000000000
       -0.1253081339        0.0000000000        0.0000000000
  @CHECKOUT-I, Total execution time :       1.1400 seconds.
                1.75 seconds walltime passed
 --executable xvdint finished with status            0
 --invoking executable xsdcc
  @GETMEM-I,   Allocated    5722 MB of main memory.
  relativistic                     0
 Vibrational frequencies and infrared intensities are calculated
 at the CCSD(T) level within the harmonic approximation.
 G(ab,cd) and dG(ab,cd)/dx are not explicitly calculated.
 AO based algorithm is used.
 Perturbed canonical orbitals are used.
 CPHF coefficients for vrt-vrt block: U^x(a,b) = -1/2 S^x(a,b)
                     1                     1
 Total CPU time :   0.140000104904175     
 processed     648962 ao basis integrals from        159 buffers 
                     1                     1
 Total CPU time :   0.159999966621399     
 processed       682513 ao basis integrals from       1138 buffers 
                     1                     1
 Total CPU time :   0.159999966621399     
 processed       682513 ao basis integrals from       1138 buffers 
                     1                     1
 Total CPU time :   0.160000085830688     
 processed       682513 ao basis integrals from       1138 buffers 
 Transformation of derivative integrals from AO to MO basis:
 RHF transformation
 Transformation of DIIII integral derivatives.
 1 pass through the AO integral derivative file was needed.
    648962 AO integral derivatives were read from file DIIII.
 Transformation of first index required    0.1 seconds.
 Transformation of remaining indices required    0.1 seconds.
    962310 MO integral derivatives were written to file DERINT.
 Formation of <ab||ci>^chi using AO integrals:
 Transformation of IIII integrals:
 1 pass through the AO integral file was needed.
    682513 AO integrals were read from file IIII.
 Tranformation of first (perturbed) index required   0.1 seconds.
 Tranformation of remaining (unperturbed) indices required   0.0 seconds.
        MO basis integral derivatives are being calculated
             (Symmetry block 1, perturbation   5)
        First derivative of the wavefunction is calculated
             (Symmetry block 1, perturbation   5)
   Frozen core orbitals in analytic derivative calculation
 Resorts of perturbed amplitudes and integrals required   0.0 seconds.
 Construction of <Phi|(dH_N/dx exp(T))c|0> required   0.2 seconds.
 Starting iterative solution of the perturbed CC equations.
 The DIIS procedure is used to accelerate convergence.
 Convergence criterion is 10**(-7).
 Maximum number of iterations is  50.
   Frozen core orbitals in analytic derivative calculation
   Frozen core orbitals in analytic derivative calculation
 Convergence information after     1 iterations: 
 Largest element of residual vector : -0.16681286E-01.
 Largest element of DIIS residual   : -0.16681286E-01.
   Frozen core orbitals in analytic derivative calculation
 Convergence information after     2 iterations: 
 Largest element of residual vector : -0.26122492E-02.
 Largest element of DIIS residual   : -0.17775198E-02.
   Frozen core orbitals in analytic derivative calculation
 Convergence information after     3 iterations: 
 Largest element of residual vector :  0.12807252E-02.
 Largest element of DIIS residual   :  0.15225891E-02.
   Frozen core orbitals in analytic derivative calculation
 Convergence information after     4 iterations: 
 Largest element of residual vector :  0.57779967E-03.
 Largest element of DIIS residual   :  0.15890847E-03.
   Frozen core orbitals in analytic derivative calculation
 Convergence information after     5 iterations: 
 Largest element of residual vector :  0.13619452E-03.
 Largest element of DIIS residual   :  0.70935673E-04.
   Frozen core orbitals in analytic derivative calculation
 Convergence information after     6 iterations: 
 Largest element of residual vector :  0.39015138E-04.
 Largest element of DIIS residual   :  0.15688217E-04.
   Frozen core orbitals in analytic derivative calculation
 Convergence information after     7 iterations: 
 Largest element of residual vector :  0.12088412E-04.
 Largest element of DIIS residual   :  0.77923424E-05.
   Frozen core orbitals in analytic derivative calculation
 Convergence information after     8 iterations: 
 Largest element of residual vector :  0.36827174E-05.
 Largest element of DIIS residual   :  0.16374736E-05.
   Frozen core orbitals in analytic derivative calculation
 Convergence information after     9 iterations: 
 Largest element of residual vector :  0.11753480E-05.
 Largest element of DIIS residual   :  0.48808669E-06.
   Frozen core orbitals in analytic derivative calculation
 Convergence information after    10 iterations: 
 Largest element of residual vector :  0.25717698E-06.
 Largest element of DIIS residual   :  0.12809891E-06.
   Frozen core orbitals in analytic derivative calculation
 Convergence information after    11 iterations: 
 Largest element of residual vector :  0.85447709E-07.
 Largest element of DIIS residual   :  0.28604061E-07.
 Perturbed amplitude equations converged in    11 iterations.
  Dominant contributions to perturbed wavefunction:
    3    3   21    9   0.0658795800 ABAB
    3    3    9   21   0.0658795800 ABAB
    3    3   57    9  -0.0572276641 ABAB
    3    3    9   57  -0.0572276641 ABAB
    3    3   42    9  -0.0564017818 ABAB
[...]
    3    3    8   42  -0.0246114698 ABAB
    3    3   21    8   0.0243278169 ABAB
    3    3    8   21   0.0243278169 ABAB
    3    3   58    7   0.0232705766 ABAB
    3    3    7   58   0.0232705766 ABAB
    4    3   58    9   0.0227823240 ABAB
    3    4    9   58   0.0227823240 ABAB
    3    3   58   13   0.0218888012 ABAB
    3    3   13   58   0.0218888012 ABAB
    4    4   58   10  -0.0215833510 ABAB
  Total CCSD gradient is   -0.014397062134473.
        The first-order density matrix is being calculated 
             (Symmetry block 1, perturbation   9)
  There are                      0  special pairs.
 Calculation of the contributions of <pq||rs> to dI(i,j)/dx
 required   0.0 seconds.
 Calculation of the contributions of <pq||rs> to dI(a,b)/dx
 required   0.7 seconds.
 Calculation of the contributions of <pq||rs> to dI(i,a)/dx
 required   0.0 seconds.
                     1                     1
 Total CPU time :   0.170000076293945     
 processed       682513 ao basis integrals from       1138 buffers 
 First-order Z-vector equations are solved for 1 perturbation.
 Convergence reached after  21 iterations.
        U*G(pq,rs) contribution is being calculated
             (Symmetry block 1, perturbation   9)

 CCSD(T) contribution to force constants 

        0.0000000000        0.0000000000        0.0000000000
        0.0000000000        0.0000000000        0.0000000000
        0.0000000000        0.0000000000        0.0000000000
        0.0000000000        0.0000000000        0.0000000000
        0.0000000000        0.0000000000        0.0000000000
        0.0000000000        0.0000000000        0.0000569251
        0.0000000000        0.0000000000        0.0000000000
        0.0000000000        0.0000000000        0.0000000000
        0.0000000000        0.0000000000       -0.0000163211
        0.0000000000        0.0000000000        0.0000000000
        0.0000000000        0.0000000000        0.0000000000
        0.0000000000        0.0000000000        0.0000000000
        0.0000000000        0.0000000000        0.0000000000
        0.0000000000        0.0000000000        0.0000000000
        0.0000000000        0.0000000000       -0.0001557756
        0.0000000000        0.0000000000        0.0000000000
        0.0000000000        0.0000000000        0.0000000000
        0.0000000000        0.0000000000        0.0001126304
        0.0000000000        0.0000000000        0.0000000000
        0.0000000000        0.0000000000        0.0000000000
        0.0000000000        0.0000000000        0.0000000000
        0.0000000000        0.0000000000        0.0000000000
        0.0000000000        0.0000000000        0.0000000000
        0.0000000000        0.0000000000        0.0000988505
        0.0000000000       -0.0035940988       -0.0022125043
        0.0000000000        0.0108049169        0.0134915215
        0.0000000000       -0.0072108181       -0.0113753265

 CCSD(T) contribution to dipole derivatives 

        0.0000000000        0.0000000000        0.0000000000
        0.0000000000        0.0000000000        0.0000000000
        0.0000000000        0.0000000000        0.0000000000
        0.0000000000        0.0000000000        0.0000000000
        0.0000000000        0.0000000000        0.0000000000
        0.0000000000        0.0000000000        0.0011151105
        0.0000000000        0.0000000000        0.0000000000
        0.0000000000        0.0000000000        0.0000000000
        0.0000000000        0.0000000000       -0.0205304540
  @CHECKOUT-I, Total execution time :      13.9100 seconds.
               15.50 seconds walltime passed
 --executable xsdcc finished with status            0
 --invoking executable xanti
  @GETMEM-I,   Allocated    5722 MB of main memory.
 CCSD(T) MO derivative gammas will be sorted to Mulliken order.
  @CHECKOUT-I, Total execution time :       0.5000 seconds.
                0.75 seconds walltime passed
 --executable xanti finished with status            0
 --invoking executable xbcktrn
  @GETMEM-I,   Allocated    5722 MB of main memory.
  @CHECKOUT-I, Total execution time :       0.4100 seconds.
                0.50 seconds walltime passed
 --executable xbcktrn finished with status            0
 --invoking executable xvdint
  @GETMEM-I,   Allocated    5722 MB of main memory.
 One- and two-electron integral derivatives are calculated
 for RHF-CC/MBPT hessians and dipole derivatives.
 Spherical gaussians are used.
  Evaluation of 2el integral derivatives

                      Two-electron integral gradient
                      ------------------------------

 H #1       0.0000000000           -0.0119740310            0.0013277818
 O #2       0.0000000000           -0.0298043086           -0.0845857985
 H #3       0.0000000000            0.0417783395            0.0832580167


  Evaluation of 2e integral derivatives required    0.98 seconds.
  contribution to Hessian
        0.0000000000       -0.0119740310        0.0013277818
        0.0000000000       -0.0298043086       -0.0845857985
        0.0000000000        0.0417783395        0.0832580167
  @CHECKOUT-I, Total execution time :       0.9800 seconds.
                1.50 seconds walltime passed
 --executable xvdint finished with status            0
 --invoking executable xanti
  @GETMEM-I,   Allocated    5722 MB of main memory.
 CCSD(T) MO gammas will be sorted to Mulliken order.
  @CHECKOUT-I, Total execution time :       0.3000 seconds.
                0.25 seconds walltime passed
 --executable xanti finished with status            0
 --invoking executable xbcktrn
  @GETMEM-I,   Allocated    5722 MB of main memory.
  @CHECKOUT-I, Total execution time :       0.4000 seconds.
                0.50 seconds walltime passed
 --executable xbcktrn finished with status            0
 --invoking executable xvdint
  @GETMEM-I,   Allocated    5722 MB of main memory.
 One- and two-electron integral derivatives are calculated
 for RHF-CC/MBPT hessians and dipole derivatives.
 Spherical gaussians are used.

                     Kinetic energy integral gradient
                     --------------------------------

 H #1       0.0000000000            0.5464513163           -0.4407213188
 O #2       0.0000000000            0.0000000000            0.8814426377
 H #3       0.0000000000           -0.5464513163           -0.4407213188



                   Nuclear attraction integral gradient
                   ------------------------------------

 H #1       0.0000000000           -4.9695892617            3.9555361879
 O #2       0.0000000000            0.0000000000           -7.9110723758
 H #3       0.0000000000            4.9695892617            3.9555361879



                      Reorthonormalization gradient
                      -----------------------------

 H #1       0.0000000000            0.2188530584           -0.2026316413
 O #2       0.0000000000            0.0000000000            0.4052632825
 H #3       0.0000000000           -0.2188530584           -0.2026316413



                     Kinetic energy integral Hessian
                     -------------------------------

           H #1 x      H #1 y      H #1 z      O #2 x      O #2 y      O #2 z

 H #1 x   -0.720617
 H #1 y    0.000000    0.088981
 H #1 z    0.000000   -0.612047   -0.188206

 O #2 x    0.723950    0.000000    0.000000   -1.447900
 O #2 y    0.000000   -0.109717    0.612047    0.000000    0.219433
 O #2 z    0.000000    0.612047    0.192598    0.000000    0.000000   -0.385195

 H #3 x   -0.003333    0.000000    0.000000    0.723950    0.000000    0.000000
 H #3 y    0.000000    0.020736    0.000000    0.000000   -0.109717   -0.612047
 H #3 z    0.000000    0.000000   -0.004392    0.000000   -0.612047    0.192598


           H #3 x      H #3 y      H #3 z

 H #3 x   -0.720617
 H #3 y    0.000000    0.088981
 H #3 z    0.000000    0.612047   -0.188206




                   Nuclear attraction integral Hessian
                   -----------------------------------

           H #1 x      H #1 y      H #1 z      O #2 x      O #2 y      O #2 z

 H #1 x    5.740721
 H #1 y    0.000000    0.166427
 H #1 z    0.000000    4.234168    2.206062

 O #2 x   -5.771330    0.000000    0.000000   11.542661
 O #2 y    0.000000   -0.069001   -4.279625    0.000000    0.138002
 O #2 z    0.000000   -4.188710   -2.263953    0.000000    0.000000    4.527907

 H #3 x    0.030609    0.000000    0.000000   -5.771330    0.000000    0.000000
 H #3 y    0.000000   -0.097426    0.045458    0.000000   -0.069001    4.188710
 H #3 z    0.000000   -0.045458    0.057891    0.000000    4.279625   -2.263953


           H #3 x      H #3 y      H #3 z

 H #3 x    5.740721
 H #3 y    0.000000    0.166427
 H #3 z    0.000000   -4.234168    2.206062




                Highest order reorthonormalization Hessian
                ------------------------------------------

           H #1 x      H #1 y      H #1 z      O #2 x      O #2 y      O #2 z

 H #1 x   -0.356108
 H #1 y    0.000000   -0.172396
 H #1 z    0.000000   -0.154603   -0.217955

 O #2 x    0.365094    0.000000    0.000000   -0.730188
 O #2 y    0.000000    0.157446    0.154603    0.000000   -0.314893
 O #2 z    0.000000    0.154603    0.227533    0.000000    0.000000   -0.455067

 H #3 x   -0.008986    0.000000    0.000000    0.365094    0.000000    0.000000
 H #3 y    0.000000    0.014949    0.000000    0.000000    0.157446   -0.154603
 H #3 z    0.000000    0.000000   -0.009578    0.000000   -0.154603    0.227533


           H #3 x      H #3 y      H #3 z

 H #3 x   -0.356108
 H #3 y    0.000000   -0.172396
 H #3 z    0.000000    0.154603   -0.217955




                Electronic contributions to dipole moment
                -----------------------------------------

                               au             Debye

                    x      0.00000000      0.00000000
                    y      0.00000000      0.00000000
                    z     -0.23438110     -0.59573743

  Conversion factor used: 1 a.u. =   2.54174691 Debye 



   Electronic contributions to static part of dipole moment derivatives
   --------------------------------------------------------------------


                     Total dipole moment derivatives
                     -------------------------------

                              Ex             Ey             Ez

               H #1 x    -0.76104737     0.00000000     0.00000000
               H #1 y     0.00000000    -0.42095474    -0.19602642
               H #1 z     0.00000000    -0.24218735    -0.59902151

               O #2 x    -8.47790526     0.00000000     0.00000000
               O #2 y     0.00000000    -9.15809052     0.00000000
               O #2 z     0.00000000     0.00000000    -8.80195699

               H #3 x    -0.76104737     0.00000000     0.00000000
               H #3 y     0.00000000    -0.42095474     0.19602642
               H #3 z     0.00000000     0.24218735    -0.59902151



  Evaluation of 1e integral derivatives required    0.10 seconds.
  Evaluation of 2el integral derivatives

                      Two-electron integral gradient
                      ------------------------------

 H #1       0.0000000000            2.1687901604           -1.8068577882
 O #2       0.0000000000            0.0000000000            3.6137155764
 H #3       0.0000000000           -2.1687901604           -1.8068577882


  Evaluation of 2e integral derivatives required    2.29 seconds.

                            Molecular gradient
                            ------------------

 H #1       0.0000000000           -0.0000000112            0.0000000011
 O #2       0.0000000000            0.0000000000           -0.0000000022
 H #3       0.0000000000            0.0000000112            0.0000000011


  Molecular gradient norm 0.161E-07

                            Molecular hessian
                            -----------------

           H #1 x      H #1 y      H #1 z      O #2 x      O #2 y      O #2 z

 H #1 x    0.000000
 H #1 y    0.000000    0.373422
 H #1 z    0.000000   -0.235864    0.221786

 O #2 x    0.000000    0.000000    0.000000    0.000000
 O #2 y    0.000000   -0.340117    0.267731    0.000000    0.680233
 O #2 z    0.000000    0.203997   -0.232822    0.000000    0.000000    0.465643

 H #3 x    0.000000    0.000000    0.000000    0.000000    0.000000    0.000000
 H #3 y    0.000000   -0.033305   -0.031867    0.000000   -0.340116   -0.203996
 H #3 z    0.000000    0.031867    0.011035    0.000000   -0.267730   -0.232821


           H #3 x      H #3 y      H #3 z

 H #3 x    0.000000
 H #3 y    0.000000    0.373421
 H #3 z    0.000000    0.235863    0.221786




                           Total dipole moment
                           -------------------

                               au             Debye

                    x      0.00000000      0.00000000
                    y      0.00000000      0.00000000
                    z      0.75343070      1.91503016

  Conversion factor used: 1 a.u. =   2.54174691 Debye 



                     Total dipole moment derivatives
                     -------------------------------

                              Ex             Ey             Ez

               H #1 x     0.33592462     0.00000000     0.00000000
               H #1 y     0.00000000     0.22673731     0.07239726
               H #1 z     0.00000000     0.08594936     0.16042622

               O #2 x    -0.67184920     0.00000000     0.00000000
               O #2 y     0.00000000    -0.45347460     0.00000000
               O #2 z     0.00000000     0.00000000    -0.32085253

               H #3 x     0.33592459     0.00000000     0.00000000
               H #3 y     0.00000000     0.22673729    -0.07239726
               H #3 z     0.00000000    -0.08594936     0.16042631



  @CHECKOUT-I, Total execution time :       2.3900 seconds.
                3.25 seconds walltime passed
 --executable xvdint finished with status            0
 --invoking executable xjoda
  masses used (in AMU) in vibrational analysis: 
   1.007825035     15.994914630      1.007825035
                     Normal Coordinate Analysis
  ----------------------------------------------------------------
    Irreducible         Harmonic       Infrared        Type 
   Representation       Frequency      Intensity 
  ----------------------------------------------------------------
                       (cm-1)         (km/mol)
  ----------------------------------------------------------------
      ----                 0.6302i       13.1011       ROTATION  
      ----                 0.4010i       79.1576      TRANSLATION
      ----                 0.1338i        0.0014      TRANSLATION
      ----                 1.2399         0.1375      TRANSLATION
      ----                 2.6373       153.5626       ROTATION  
      ----                 3.4415        87.1182       ROTATION  
        A1              1668.8830        62.9904       VIBRATION 
        A1              3840.9211         3.2139       VIBRATION 
        B2              3945.5297        39.0250       VIBRATION 
  ----------------------------------------------------------------
 
 
                                   Normal Coordinates 

                A1                        A1                        B2
              1668.88                   3840.92                   3945.53 
             VIBRATION                 VIBRATION                 VIBRATION 
 H      0.000 0.4133  0.5407    0.0000  0.5737 -0.3895    0.0000  0.5352 -0.4213
 O      0.000 0.0000 -0.2714    0.0000  0.0000  0.1955    0.0000 -0.2687  0.0000
 H      0.000-0.4133  0.5407    0.0000 -0.5738 -0.3895    0.0000  0.5352  0.4213
            Gradient vector in normal coordinate representation
         ----------------------------------------------------------
   i    W(I)     dE/dQ(i)     dE/dq      dE/dq     [dE/dQ(i)]/w(i)
                              (cm-1)      (eV)        (relative)
         ----------------------------------------------------------
    7  1668.88 -0.0000000079     -0.00046      0.00000   0.0000000000
    8  3840.92 -0.0000000138     -0.00053      0.00000   0.0000000000
    9  3945.53  0.0000000000      0.00000      0.00000   0.0000000000
         ----------------------------------------------------------
 
                      Normal modes in internal coordinates 
---------------------------------------------------------------------------
              0.630         0.401         0.134         1.240         2.637
---------------------------------------------------------------------------
R1         0.000000      0.000000      0.000000      0.000000      0.000000
R1         0.000000      0.000000      0.000000      0.000000      0.000000
A1         0.000000      0.000000      0.000000      0.000000      0.000000
---------------------------------------------------------------------------
              3.442      1668.883      3840.921      3945.530
---------------------------------------------------------------------------
R1         0.000000      0.063735     -0.707054     -0.707116
R1         0.000000      0.063735     -0.707073      0.707097
A1         0.000001     -0.995930     -0.011088      0.000000
---------------------------------------------------------------------------
 
  ----------------------------------------------------------------
                    Dipole Moment Function
                   (Normal Coordinate Basis)
  ----------------------------------------------------------------
    Mode     Symmetry    d(Mu(x))/dQ   d(Mu(y))/dQ   d(Mu(z))/dQ
  ----------------------------------------------------------------
     Q7          A1        0.000000      0.000000      0.254193
     Q8          A1        0.000000     -0.000003     -0.057418
     Q9          B2        0.000000      0.200078     -0.000001
  ----------------------------------------------------------------
---------------------------------------------------------------------------
------------------------------------------------------------
        Parameter                (MHz)                 (CM-1)
------------------------------------------------------------
 
           R6                -.314225E+01           -.104814E-03
           R5                0.303598E+02           0.101269E-02
           SI                            0.560023E+01
 
  A-reduced centrifugal distortion parameters 
 
           DJ                0.291604E+02           0.972686E-03
           DK                0.674930E+03           0.225133E-01
           DJK               -.108895E+03           -.363236E-02
           DELJ              0.354449E+02           0.118231E-02
           DELK              0.706353E+03           0.235614E-01
           DELJK             -.146602E+03           -.489013E-02
           delJ              0.142433E+02           0.475107E-03
           delK              0.966974E+01           0.322548E-03
 
  S-reduced centrifugal distortion parameters 
 
           DJ                0.345816E+02           0.115352E-02
           DK                0.702036E+03           0.234174E-01
           DJK               -.141422E+03           -.471734E-02
           D1                -.142433E+02           -.475107E-03
           D2                -.431667E+00           -.143989E-04
------------------------------------------------------------
   Vibrational frequencies after rotational projection  of 
   Cartesian force constants: 
            1               1.5245i
            2               0.3776i
            3               0.0000i
            4               0.0000 
            5               0.0000 
            6               1.2970 
            7            1668.8823 
            8            3840.9214 
            9            3945.5299 
  Zero-point vibrational energy:   13.5189 kcal/mol =   56.5632 kJ/mol.
                0.00 seconds walltime passed
 --executable xjoda finished with status            0
