 --invoking executable xjoda


   *************************************************************************
         <<<     CCCCCC     CCCCCC   |||     CCCCCC     CCCCCC   >>>
       <<<      CCC        CCC       |||    CCC        CCC         >>>
      <<<      CCC        CCC        |||   CCC        CCC            >>>
    <<<        CCC        CCC        |||   CCC        CCC              >>>
      <<<      CCC        CCC        |||   CCC        CCC            >>>
       <<<      CCC        CCC       |||    CCC        CCC         >>>
         <<<     CCCCCC     CCCCCC   |||     CCCCCC     CCCCCC   >>>
   *************************************************************************

     ****************************************************************
     * CFOUR Coupled-Cluster techniques for Computational Chemistry *
     ****************************************************************
 

   Department of Chemistry                Institut fuer Physikalische Chemie
   University of Texas at Austin          Universitaet Mainz
   Austin, TX  78712, USA                 D-55099 Mainz, Germany
 
                       Version 1.0
 
                     schem1a1.systems.smu.edu                          
                     Sun Jul 15 14:26:21 CDT 2012                      
                     integer*8 version is running
 
    -------------------------------------------------------------------
                    Input from ZMAT file
    -------------------------------------------------------------------
 
 Job at CCSD(T)/PVTZ level                                                      
 Ge                                                                             
 H 1 B1                                                                         
 H 1 B1 2 A2                                                                    
 H 1 B1 2 A2 3 D3                                                               
 H 1 B1 2 A2 3 D4                                                               
                                                                                
 B1   =        1.541566869563168                                                
 A2   =      109.471220630000005                                                
 D3   =      120.000000000000043                                                
 D4   =     -120.000000000000043                                                
                                                                                
 *ACES2(CALC=CCSD(T)                                                            
 BASIS=PVTZ                                                                     
 FROZEN_CORE=ON                                                                 
 VIB=ANALYTIC                                                                   
 ABCDTYPE=AOBASIS                                                               
 MEM_UNIT=GB                                                                    
 MEMORY=6                                                                       
 CHARGE=0                                                                       
 MULTIPLICITY=1)                                                                
                                                                                
                                                                                
                                                                                
 
    -------------------------------------------------------------------
                    CFOUR Control Parameters 
    -------------------------------------------------------------------
        External           Internal           Value            Units
          Name               Name
    -------------------------------------------------------------------
       PRINT                IPRNT               0               ***   
       CALCLEVEL            ICLLVL           CCSD(T)    [ 22]   ***   
       DERIV_LEV            IDRLVL            SECOND    [  2]   ***   
       CC_CONV              ICCCNV          10D-  7             ***   
       SCF_CONV             ISCFCV          10D-  7             ***   
       XFORM_TOL            IXFTOL          10D- 11             ***   
       CC_MAXCYC            ICCCYC             50              cycles 
       LINDEP_TOL           ILINDP              8               ***   
       RDO                  IRDOFM              ON      [  1]   ***   
  
       SCF_EXTRAPO          IRPP                ON      [  1]   ***   
       REFERENCE            IREFNC             RHF      [  0]   ***   
       CC_EXPORDER          ICCEOR              5               ***   
       TAMP_SUM             IEVERY              5               ***   
       NTOP_TAMP            ITOPT2             15               ***   
       CCORBOPT             ICCORB             OFF      [  0] x 0.01  
       SCF_MAXCYC           ISCFCY            150              cycles 
       OCCUPATION           IOCCU   ESTIMATED BY SCF 
       PROPS                IPROPS             OFF      [  0]   ***   
       RELAX_DENS           IRDENS              ON      [  1]   ***   
  
       SCF_EXPORDE          IRPPOR              6               ***   
       CC_EXTRAPOL          ICCEXT             DIIS     [  1]   ***   
       BRUECKNER            IBRKNR             OFF      [  0]   ***   
       XFIELD               IXEFLD              0             x 10-6  
       YFIELD               IYEFLD              0             x 10-6  
       ZFIELD               IZEFLD              0             x 10-6  
       SAVE_INTS            ISVINT             OFF      [  0]   ***   
       DROPMO               IDRPMO      NONE         
       CHARGE               ICHRGE              0               ***   
       MULTIPLICTY          IMULTP              1               ***   
  
       CPHF_CONVER          ICPHFT          10D- 16             ***   
       CPHF_MAXCYC          ICPHFC             64              cycles 
       INCORE               INCORE             OFF      [  0]   ***   
       MEMORY_SIZE          IMEMSZ         750000000           words  
       FILE_RECSIZ          IFLREC              4096           words  
       NON-HF               INONHF             OFF      [  0]   ***   
       ORBITALS             IORBTP           STANDARD   [  0]   ***   
  
       SCF_EXPSTAR          IRPPLS              8               ***   
       LOCK_ORBOCC          ILOCOC             OFF      [  0]   ***   
       HBAR                 IHBAR              OFF      [  0]   ***   
       CACHE_RECS           ICHREC             10               ***   
       GUESS                IGUESS            MOREAD    [  0]   ***   
       JODA_PRINT           IJPRNT              0               ***   
       GEO_METHOD           INR            SINGLE_POINT [  5]   ***   
       GEO_CONV             ICONTL              5              H/bohr 
       EIGENVECTOR          IVEC                1               ***   
  
       NEGEVAL              IDIE             ABORT      [  0]   ***   
       CURVILINEAR          ICURVY            OFF       [  0]   ***   
       SCALE_ON             ISTCRT              0               ***   
       GEO_MAXSTEP          IMXSTP            300            millibohr
       VIBRATION            IVIB             ANALYTIC   [  1]   ***   
       EVAL_HESS            IRECAL              0            # of cyc.
       INTEGRALS            INTTYP             VMOL     [  1]   ***   
       FD_STEPSIZE          IDISFD              0            10-4 bohr
       POINTS               IGRDFD              0               ***   
       CONTRACTION          ICNTYP          GENERAL     [  1]   ***   
  
       SYMMETRY             ISYM             ON         [  0]   ***   
       BASIS                IBASIS         PVTZ         [ 14]   ***   
       SPHERICAL            IDFGHI             ON       [  1]   ***   
       RESET_FLAGS          IRESET             OFF      [  0]   ***   
       PERT_ORB             IPTORB         CANONICAL    [  1]   ***   
       GENBAS_1             IGNBS1              0               ***   
       GENBAS_2             IGNBS2              0               ***   
       GENBAS_3             IGNBS3              0               ***   
       COORDINATES          ICOORD         INTERNAL     [  0]   ***   
       SYM_CHECK            ISYMCK         OVERRIDE     [  1]   ***   
  
       SCF_PRINT            ISCFPR              0               ***   
       ECP                  IECP           OFF          [  0]   ***   
       RESTART_CC           ICCRES         OFF          [  0]   ***   
       TRANS_INV            ITRAIN         USE          [  0]   ***   
       HFSTABILITY          ISTABL         OFF          [  0]   ***   
       ROT_EVEC             ROTVEC              0               ***   
       BRUCK_CONV           IBRTOL          10D-  4             ***   
       UNITS                IUNITS         ANGSTROM     [  0]   ***   
       FD_USEGROUP          IFDGRP         FULL         [  0]   ***   
  
       FD_PROJECT           IFDPRJ         ON           [  0]   ***   
       FD_CALTYPE           IFDCAL         GRADONLY     [  0]   ***   
       VTRAN                IVTRAN         PARTIAL      [  2]   ***   
       HF2_FILE             IHF2Fl         USE          [  1]   ***   
       SUBGROUP             ISUBGP         DEFAULT      [  0]   ***   
       SUBGRPAXIS           ISBXYZ         X            [  0]   ***   
       EXCITE               IEXCIT         NONE         [  0]   ***   
       LINEQ_CONV           IZTACN          10D-  7           cycles  
  
       TREAT_PERT           ITREAT         SIMULTANEOUS [  0]   ***   
       ESTATE_PROP          IEXPRP         OFF          [  0]   ***   
       GEO_MAXCYC           IOPTCY             50               ***   
       ABCDTYPE             IABCDT         AOBASIS      [  2]   ***   
       AO_LADDERS           IAOLAD         SINGLEPASS   [  1]   ***   
       FOCK                 IFOCK          AO           [  1]   ***   
       ESTATE_MAXC          IEXMXC             20               ***   
       ESTATE_CONV          IEXTOL          10D-  5             ***   
       DIRECT               IDIRCT         OFF          [  0]   ***   
  
       GAMMA_ABCD           IGABCD         DIRECT       [  1]   ***   
       LINEQ_TYPE           ILTYPE         DIIS         [  1]   ***   
       LINEQ_MAXCY          ILMAXC             50               ***   
       TRANGRAD             IRESRM         OFF          [  0]   ***   
       PSI                  IPSI           OFF          [  0]   ***   
       GAMMA_ABCI           IGABCI         STORE        [  0]   ***   
       ESTATE_DIAG          IEXDIG         ITERATIVE    [  0]   ***   
       FC_FIELD             IFINFC              0             x 10-6  
       SD_FIELD             IFINSD              0             x 10-6  
       DIFF_TYPE            IDIFTY         RELAXED      [  0]   ***   
  
       LINEQ_EXPOR          ILMAXD              5               ***   
       FINITE_PERT          IFIPER              0             x 10-6  
       ANHARMONIC           IANHAR         OFF          [  0]   ***   
       CC_PROGRAM           ICCPRO         VCC          [  0]   ***   
       OPEN-SHELL           IOPEN          SPIN-ORBITAL [  0]   ***   
       UIJ_THRESHO          IUIJTH             25               ***   
       SCF_DAMPING          IDAMP               0             x 10-3  
       PROP_INTEGR          IINTYP         INTERNAL     [  0]   ***   
       ANH_SYMMETR          IANHSM         ABELIAN      [  0]   ***   
       ANH_ALGORIT          IANALG         STANDARD     [  0]   ***   
  
       EOM_NONIT            EOMNON         OFF          [  0]   ***   
       VIB_ALGORIT          IGEALG         STANDARD     [  0]   ***   
       ANH_DERIVAT          IANDER         SECOND       [  1]   ***   
       SPINROTATIO          ISRCON         OFF          [  0]   ***   
       CIS_CONV             ICISTL              5               ***   
       ANH_STEPSIZ          ICUBST             50000          x 10-6  
       SPIN_FLIP            ISPFLP         OFF          [  0]   ***   
       GRID                 IGRID          OFF          [  0]   ***   
  
       DBOC                 IDBOC          OFF          [  0]   ***   
       EOMFOLLOW            IEOMSR         ENERGY       [  0]   ***   
       T3_EXTRAPOL          IT3EXT         OFF          [  0]   ***   
       ESTATE_LOCK          IESLOC         OFF          [  0]   ***   
       UNOS                 IUNOS          OFF          [  0]   ***   
       FREQ_ALGORI          IVIALG         STANDARD     [  0]   ***   
       RELATIVIST           IRELAT         OFF          [  0]   ***   
       FROZEN_CORE          IFROCO         ON           [  1]   ***   
       EXCITATION           IEXCIT              0               ***   
       INPUT_MRCC           IMRCC          ON           [  1]   ***   
  
       GIAO                 IGIAO          OFF          [  1]   ***   
       EOM_NSING            IEOMSI          10D-  0             ***   
       EOM_NTRIP            IEOMTR          10D-  0             ***   
       EOM_NSTATES          IMRCCD         DAVIDSON     [  0]   ***   
       DIAG_MRCC            IEOMST          10D-  0             ***   
       NEWNORM              INEWNO         OFF          [  0]   ***   
       TESTSUITE            ITESTS         OFF          [  0]   ***   
       BUFFERSIZE           IBUFFS            600               ***   
       SPINORBIT            ISOCAL         OFF          [  0]   ***   
       DCT                  IDCT           OFF          [  0]   ***   
  
       PARALLEL             IPARAL         ON           [  1]   ***   
       PARA_PRINT           IPPRIN              0               ***   
       COMM_SIZE            IPSIZE            ***               ***   
       PARA_INT             IPINTS         ON           [  1]   ***   
       RAMAN_INT            IRAMIN         OFF          [  0]   ***   
       RAMAN_ORB            IRAMRE         UNRELAXED    [  0]   ***   
       BREIT                IBREIT         OFF          [  0]   ***   
       MEM_UNIT             IMEMU          GB           [  3]   ***   
       SPIN_ORBIT           ISPORB         OFF          [  0]   ***   
       GENBAS_4             IGNBS4              0               ***   
  
       SPIN_SCAL            ISCSMP         OFF          [  0]   ***   
       GRID_ALGO            IGALGO         SERIAL       [  0]   ***   
       VIBPHASE             ISETPH         STANDARD     [  0]   ***   
       SEQUENCE             ISEQUE         OFF          [  0]   ***   
       HESS_TYPE            IHESTP         SCF          [  0]   ***   
       CONTINUUM            ICONTU         NONE         [  0]   ***   
       SCF_NOSTOP           ISCFST         OFF          [  0]   ***   
       CONSTANT             ICONST         OLD          [  1]   ***   
  
       EOM_MRCC             IMRCCE         OLD          [  0]   ***   
       EOM_ORDER            IEXORD         ENERGY       [  0]   ***   
       GIMIC                IGIMIC         OFF          [  0]   ***   
    -------------------------------------------------------------------
   5 entries found in Z-matrix 
   Job Title : Job at CCSD(T)/PVTZ level                                                       
   There are  4 unique internal coordinates.
   Of these,  0 will be optimized.
   User supplied Z-matrix: 
--------------------------------------------------------------------------------
       SYMBOL    BOND      LENGTH    ANGLE     ANGLE     DIHED     ANGLE
                  TO      (ANGST)    WRT      (DEG)      WRT      (DEG)
--------------------------------------------------------------------------------
        Ge   
        H          1         B1   
        H          1         B1         2        A2   
        H          1         B1         2        A2         3        D3   
        H          1         B1         2        A2         3        D4   
                  *Initial values for internal coordinates* 
                      Name             Value
                        B1              1.5415668696
                        A2            109.4712206300
                        D3            120.0000000000
                        D4           -120.0000000000
--------------------------------------------------------------------------------
  1  GE        32    73.92118
  2  H          1     1.00783
  3  H          1     1.00783
  4  H          1     1.00783
  5  H          1     1.00783
   Rotational constants (in cm-1): 
          2.6394773786             2.6394773788             2.6394773788
   Rotational constants (in MHz): 
      79129.5522021040         79129.5522086821         79129.5522086821
********************************************************************************
   The full molecular point group is T d .
   The largest Abelian subgroup of the full molecular point group is C2v .
   The computational point group is C2v .
********************************************************************************
--------------------------------------------------------------------------------
   Analysis of internal coordinates specified by Z-matrix 
--------------------------------------------------------------------------------
   *The nuclear repulsion energy is   45.20011 a.u.
   *There is   1 degree of freedom within the tot. symm. molecular subspace.
   *Z-matrix requests optimization of   0 coordinates.
   *The optimization is constrained.
   *The following   1 parameters can have non-zero 
    derivatives within the totally symmetric subspace:
             B1   [ 1]
   *The following   0 parameters are to be optimized:

   *The following coordinates must be varied in an  unconstrained optimization.
             B1   [ 1]
--------------------------------------------------------------------------------
 ----------------------------------------------------------------
 Z-matrix   Atomic            Coordinates (in bohr)
  Symbol    Number           X              Y              Z
 ----------------------------------------------------------------
     GE       32         0.00000000     0.00000000     0.00000000
     H         1         0.00000000    -2.37856868     1.68190205
     H         1         0.00000000     2.37856868     1.68190205
     H         1         2.37856868     0.00000000    -1.68190205
     H         1        -2.37856868     0.00000000    -1.68190205
 ----------------------------------------------------------------
   Interatomic distance matrix (Angstroms) 
 
                 GE            H             H             H             H    
                [ 1]        [ 2]        [ 3]        [ 4]        [ 5]
  GE   [ 1]     0.00000
  H    [ 2]     1.54157     0.00000
  H    [ 3]     1.54157     2.51737     0.00000
  H    [ 4]     1.54157     2.51737     2.51737     0.00000
  H    [ 5]     1.54157     2.51737     2.51737     2.51737     0.00000
   ***PROGRAM ERROR***, Inertia tensor not diagonal in ROTCON.
   Rotational constants (in cm-1): 
          0.0000000000             2.6394773788             2.6394773787
          2.6394773787
   Rotational constants (in MHz): 
          0.0000000000         79129.5522086821         79129.5522042966
      79129.5522064894
  There are  14 frozen-core orbitals.
  There are   99 basis functions.
                0.50 seconds walltime passed
 --executable xjoda finished with status            0
 --invoking executable xvmol
 Serial version of molecule started
 
    -------------------------------------------------------------------
                    Input from MOL file
    -------------------------------------------------------------------
 INTGRL        1    0    1    0    0    0    0    0    0                        
          *** CFOUR Program System (Release V0.1) ***                           
 Job at CCSD(T)/PVTZ level                                                      
     3    2 X  Y       0.10E-08              0    0                             
    9999.00      3.00                                                           
          32.00000000    1    4    1    1    1    1                             
 GE#1   0.000000000000000   0.000000000006817  -0.000000000004820               
    20    6                                                                     
    7447966.80000000       7.400000000000000E-006 -2.300000000000000E-006       
   9.000000000000000E-007 -2.000000000000000E-007  0.000000000000000E+000       
   0.000000000000000E+000                                                       
    1115318.20000000       5.740000000000000E-005 -1.790000000000000E-005       
   6.900000000000000E-006 -1.800000000000000E-006  0.000000000000000E+000       
   0.000000000000000E+000                                                       
    253842.650000000       3.019000000000000E-004 -9.399999999999999E-005       
   3.620000000000000E-005 -9.300000000000001E-006  0.000000000000000E+000       
   0.000000000000000E+000                                                       
    71915.2850000000       1.273300000000000E-003 -3.964000000000000E-004       
   1.528000000000000E-004 -3.920000000000000E-005  0.000000000000000E+000       
   0.000000000000000E+000                                                       
    23470.1810000000       4.612300000000000E-003 -1.442500000000000E-003       
   5.563000000000000E-004 -1.426000000000000E-004  0.000000000000000E+000       
   0.000000000000000E+000                                                       
    8477.49180000000       1.482140000000000E-002 -4.667500000000000E-003       
   1.801800000000000E-003 -4.621000000000000E-004  0.000000000000000E+000       
   0.000000000000000E+000                                                       
    3308.39080000000       4.255360000000000E-002 -1.371530000000000E-002       
   5.308500000000000E-003 -1.361400000000000E-003  0.000000000000000E+000       
   0.000000000000000E+000                                                       
    1372.60540000000       0.107305500000000      -3.617970000000000E-002       
   1.408770000000000E-002 -3.617500000000000E-003  0.000000000000000E+000       
   0.000000000000000E+000                                                       
    598.220070000000       0.224517800000000      -8.416790000000000E-002       
   3.320130000000000E-002 -8.535900000000001E-003  0.000000000000000E+000       
   0.000000000000000E+000                                                       
    271.386020000000       0.345313100000000      -0.158876700000000            
   6.446209999999999E-002 -1.665060000000000E-002  0.000000000000000E+000       
   0.000000000000000E+000                                                       
    126.977950000000       0.304526100000000      -0.203380700000000            
   8.695400000000000E-002 -2.259110000000000E-002  0.000000000000000E+000       
   0.000000000000000E+000                                                       
    60.2220650000000       9.906700000000000E-002 -2.514100000000000E-002       
   1.187450000000000E-002 -3.214700000000000E-003  0.000000000000000E+000       
   0.000000000000000E+000                                                       
    28.0185820000000       4.131700000000000E-003  0.457515200000000            
  -0.272453400000000       7.449980000000000E-002  0.000000000000000E+000       
   0.000000000000000E+000                                                       
    13.5175220000000       1.034700000000000E-003  0.557193900000000            
  -0.500145200000000       0.144033300000000       0.000000000000000E+000       
   0.000000000000000E+000                                                       
    6.30940600000000      -4.856000000000000E-004  0.139705500000000            
   1.085540000000000E-002 -8.081500000000000E-003  0.000000000000000E+000       
   0.000000000000000E+000                                                       
    2.90453400000000       1.805000000000000E-004  2.264500000000000E-003       
   0.721646900000000      -0.270416300000000       0.000000000000000E+000       
   0.000000000000000E+000                                                       
    1.28755600000000      -9.119999999999999E-005  2.092700000000000E-003       
   0.480521300000000      -0.340160700000000       0.000000000000000E+000       
   0.000000000000000E+000                                                       
   0.336552000000000       3.780000000000000E-005 -4.739000000000000E-004       
   2.777380000000000E-002  0.292208400000000        1.00000000000000            
   0.000000000000000E+000                                                       
   0.167732000000000      -2.660000000000000E-005  3.281000000000000E-004       
  -1.022970000000000E-002  0.619065700000000       0.000000000000000E+000       
   0.000000000000000E+000                                                       
   7.106899999999999E-002  7.200000000000000E-006 -9.160000000000000E-005       
   2.244400000000000E-003  0.286327600000000       0.000000000000000E+000       
    1.00000000000000                                                            
    13    5                                                                     
    6979.59820000000       4.569000000000000E-004 -1.756000000000000E-004       
   3.480000000000000E-005  0.000000000000000E+000  0.000000000000000E+000       
    1654.16480000000       3.956200000000000E-003 -1.530500000000000E-003       
   3.014000000000000E-004  0.000000000000000E+000  0.000000000000000E+000       
    536.028650000000       2.131430000000000E-002 -8.314500000000001E-003       
   1.648700000000000E-003  0.000000000000000E+000  0.000000000000000E+000       
    203.537130000000       8.187150000000000E-002 -3.287180000000000E-002       
   6.498200000000000E-003  0.000000000000000E+000  0.000000000000000E+000       
    85.2375300000000       0.222373200000000      -9.316610000000000E-002       
   1.863830000000000E-002  0.000000000000000E+000  0.000000000000000E+000       
    37.8419620000000       0.390565900000000      -0.175554200000000            
   3.506130000000000E-002  0.000000000000000E+000  0.000000000000000E+000       
    17.4065120000000       0.356041500000000      -0.146791200000000            
   2.958920000000000E-002  0.000000000000000E+000  0.000000000000000E+000       
    7.88149200000000       0.107031200000000       0.186293400000000            
  -4.724580000000000E-002  0.000000000000000E+000  0.000000000000000E+000       
    3.53321300000000       3.694100000000000E-003  0.526486200000000            
  -0.124984700000000       0.000000000000000E+000  0.000000000000000E+000       
    1.52147300000000       1.921900000000000E-003  0.397085900000000            
  -0.121080100000000       0.000000000000000E+000  0.000000000000000E+000       
   0.562704000000000      -4.164000000000000E-004  5.714750000000000E-002       
   0.136866900000000        1.00000000000000       0.000000000000000E+000       
   0.199093000000000       1.917000000000000E-004 -3.347800000000000E-003       
   0.575473000000000       0.000000000000000E+000  0.000000000000000E+000       
   6.703099999999999E-002 -6.120000000000000E-005  1.273800000000000E-003       
   0.444268900000000       0.000000000000000E+000   1.00000000000000            
     9    3                                                                     
    282.239110000000       1.827500000000000E-003  0.000000000000000E+000       
   0.000000000000000E+000                                                       
    84.5499570000000       1.515450000000000E-002  0.000000000000000E+000       
   0.000000000000000E+000                                                       
    32.0736560000000       6.604599999999999E-002  0.000000000000000E+000       
   0.000000000000000E+000                                                       
    13.4974950000000       0.183947000000000       0.000000000000000E+000       
   0.000000000000000E+000                                                       
    5.95855000000000       0.322787200000000       0.000000000000000E+000       
   0.000000000000000E+000                                                       
    2.61078800000000       0.372945900000000       0.000000000000000E+000       
   0.000000000000000E+000                                                       
    1.10398700000000       0.275173000000000       0.000000000000000E+000       
   0.000000000000000E+000                                                       
   0.424049000000000       8.852340000000000E-002   1.00000000000000            
   0.000000000000000E+000                                                       
   0.152000000000000       0.000000000000000E+000  0.000000000000000E+000       
    1.00000000000000                                                            
     1    1                                                                     
   0.345800000000000        1.00000000000000                                    
           1.00000000    1    3    1    1    1                                  
 H #2  -0.000000000190917  -2.378568683782624   1.681902045946011               
     5    3                                                                     
    33.8700000000000       6.068000000000000E-003  0.000000000000000E+000       
   0.000000000000000E+000                                                       
    5.09500000000000       4.530800000000000E-002  0.000000000000000E+000       
   0.000000000000000E+000                                                       
    1.15900000000000       0.202822000000000       0.000000000000000E+000       
   0.000000000000000E+000                                                       
   0.325800000000000       0.503903000000000        1.00000000000000            
   0.000000000000000E+000                                                       
   0.102700000000000       0.383421000000000       0.000000000000000E+000       
    1.00000000000000                                                            
     2    2                                                                     
    1.40700000000000        1.00000000000000       0.000000000000000E+000       
   0.388000000000000       0.000000000000000E+000   1.00000000000000            
     1    1                                                                     
    1.05700000000000        1.00000000000000                                    
           1.00000000    1    3    1    1    1                                  
 H #3   2.378568683914446  -0.000000000440929  -1.681902045778869               
     5    3                                                                     
    33.8700000000000       6.068000000000000E-003  0.000000000000000E+000       
   0.000000000000000E+000                                                       
    5.09500000000000       4.530800000000000E-002  0.000000000000000E+000       
   0.000000000000000E+000                                                       
    1.15900000000000       0.202822000000000       0.000000000000000E+000       
   0.000000000000000E+000                                                       
   0.325800000000000       0.503903000000000        1.00000000000000            
   0.000000000000000E+000                                                       
   0.102700000000000       0.383421000000000       0.000000000000000E+000       
    1.00000000000000                                                            
     2    2                                                                     
    1.40700000000000        1.00000000000000       0.000000000000000E+000       
   0.388000000000000       0.000000000000000E+000   1.00000000000000            
     1    1                                                                     
    1.05700000000000        1.00000000000000                                    
 FINISH                                                                         
 
    -------------------------------------------------------------------
 
 One- and two-electron integrals over symmetry-adapted AOs are calculated.

  Spherical harmonics are used.
  
  Integrals less than  0.10E-13 are neglected.

  Nuclear repulsion energy :   45.2001084050 a.u.
  required memory for a1 array               12223062  words 
  required memory for a2 array                3121348  words 
 basis number:  32    49
 basis number:   1    15
 basis number:   1    15
  @GETMEM-I,   Allocated     132 MB of main memory.
  @MOLECU-I, One electron integrals required         0.05000 seconds.
  @TWOEL-I,     378302 integrals of symmetry type  I I I I
  @TWOEL-I,    1200397 integrals of symmetry type  I J I J
  @TWOEL-I,     644620 integrals of symmetry type  I I J J
  @TWOEL-I,     790021 integrals of symmetry type  I J K L
  @TWOEL-I, Total number of 2-e integrals    3013340.
  @MOLECU-I, Two electron integrals required         2.68000 seconds.
  @CHECKOUT-I, Total execution time :       2.7600 seconds.
                2.88 seconds walltime passed
 --executable xvmol finished with status            0
 --invoking executable xvmol2ja
  @GETMEM-I,   Allocated    5722 MB of main memory.
  @CHECKOUT-I, Total execution time :       0.0000 seconds.
                0.00 seconds walltime passed
 --executable xvmol2ja finished with status            0
 --invoking executable xvscf
 NSOSCF                     0
  There are   99 functions in the AO basis.

  There are 4 irreducible representations.

       Irrep        # of functions
         1                 39
         2                 24
         3                 24
         4                 12


  Parameters for SCF calculation: 
        SCF reference function:  RHF  
  Maximum number of iterations:  150
     Full symmetry point group: T d 
     Computational point group: C2v 
        Initial density matrix: MOREAD                 
     SCF convergence tolerance: 10**(- 7)
  DIIS convergence acceleration:  ON
          Latest start for DIIS:   8
                     DIIS order:   6

  Memory information:     431922 words required.
  Fock matrices are constructed from AO integral file.
  @GETMEM-I,   Allocated       3 MB of main memory.
  Initialization and symmetry analysis required      0.000 seconds.

  @INITGES-I, Occupancies from core Hamiltonian:

          Alpha population by irrep:   9    4    4    1
           Beta population by irrep:   9    4    4    1


 total no. of electrons in initial guess :  0.000000000000000E+000
  --------------------------------------------------------------------
  Iteration         Total Energy            Largest Density Difference
  --------------------------------------------------------------------
       0            45.200108405047267              0.0000000000D+00
   current occupation vector 
     9  4  4  1
     9  4  4  1
       1         -2054.641504416903899              0.1319726665D+03
   current occupation vector 
     9  4  4  1
     9  4  4  1
       2         -1996.958399800667394              0.1243894108D+03
   current occupation vector 
    10  4  4  0
    10  4  4  0
       3         -2059.980441993307977              0.1294286664D+03
   current occupation vector 
     9  4  4  1
     9  4  4  1
       4         -1999.072344267865674              0.1237038315D+03
   current occupation vector 
    10  4  4  0
    10  4  4  0
       5         -2060.122952746637111              0.1241348041D+03
   current occupation vector 
     9  4  4  1
     9  4  4  1
       6         -1999.169090182379250              0.1238254221D+03
   current occupation vector 
    10  4  4  0
    10  4  4  0
       7         -2060.129334059225584              0.1238437388D+03
   current occupation vector 
     9  4  4  1
     9  4  4  1
       8         -1999.173664885692460              0.1238291582D+03
   current occupation vector 
    10  4  4  0
    10  4  4  0
       9         -2074.740214042024945              0.1376236121D+03
   current occupation vector 
     9  4  4  1
     9  4  4  1
      10         -2077.435713624336586              0.1514309403D+01
   current occupation vector 
     9  4  4  1
     9  4  4  1
      11         -2077.693571170246287              0.3607918344D+00
   current occupation vector 
     9  4  4  1
     9  4  4  1
      12         -2077.717384214342019              0.1681405802D+00
   current occupation vector 
     9  4  4  1
     9  4  4  1
      13         -2077.717928217278313              0.1867112020D-01
   current occupation vector 
     9  4  4  1
     9  4  4  1
      14         -2077.717939687072885              0.1754797661D-02
   current occupation vector 
     9  4  4  1
     9  4  4  1
      15         -2077.717939716485944              0.3358446272D-03
   current occupation vector 
     9  4  4  1
     9  4  4  1
      16         -2077.717939717584613              0.3397624645D-04
   current occupation vector 
     9  4  4  1
     9  4  4  1
      17         -2077.717939717631452              0.4654508383D-05
   current occupation vector 
     9  4  4  1
     9  4  4  1
      18         -2077.717939717636455              0.2777253187D-05
   current occupation vector 
     9  4  4  1
     9  4  4  1
      19         -2077.717939717641457              0.5282321892D-06
   current occupation vector 
     9  4  4  1
     9  4  4  1

  SCF has converged.

 save density matrix on hard disk
 total electron number:   36.0000000000000     
     E(SCF)=     -2077.717939717636909              0.6101013605D-07

  Eigenvector printing suppressed.

 @PUTMOS-I, Writing converged MOs to NEWMOS. 
 @PUTMOS-I, Symmetry   1 Full   9 Partial   3
 @PUTMOS-I, Symmetry   2 Full   6 Partial   0
 @PUTMOS-I, Symmetry   3 Full   6 Partial   0
 @PUTMOS-I, Symmetry   4 Full   3 Partial   0


 
  ORBITAL EIGENVALUES (ALPHA)  (1H = 27.2113838 eV)

       MO #        E(hartree)               E(eV)           FULLSYM    COMPSYM
       ----   --------------------   --------------------   -------   ---------
    1     1        -405.2249669031      -11026.7321076762      A1        A1 (1)
    2     2         -52.1329923959       -1418.6108657487      A1        A1 (1)
    3    40         -46.2201043892       -1257.7130007155      T2        B1 (2)
    4     3         -46.2201043892       -1257.7130007154      T2        A1 (1)
    5    64         -46.2201043892       -1257.7130007153      T2        B2 (3)
    6     4          -7.1778999481        -195.3205905069      A1        A1 (1)
    7    41          -5.1531354827        -140.2239474930      T2        B1 (2)
    8     5          -5.1531354827        -140.2239474928      T2        A1 (1)
    9    65          -5.1531354826        -140.2239474926      T2        B2 (3)
   10    42          -1.6283625850         -44.3099992992      T2        B1 (2)
   11     6          -1.6283625850         -44.3099992987      T2        A1 (1)
   12    66          -1.6283625850         -44.3099992984      T2        B2 (3)
   13     7          -1.6248262594         -44.2137709847       E        A1 (1)
   14    88          -1.6248262594         -44.2137709847       E        A2 (4)
   15     8          -0.7354313999         -20.0121060958      A1        A1 (1)
   16    67          -0.4716625895         -12.8345917550      T2        B2 (3)
   17     9          -0.4716625893         -12.8345917501      T2        A1 (1)
   18    43          -0.4716625891         -12.8345917453      T2        B1 (2)
  +++++++++++++++++++++++++++++++++++++++++++++++++++++++++++++++++++++++++++++
   19    44           0.1422430554           3.8706303766      T2        B1 (2)
   20    10           0.1422430555           3.8706303784      T2        A1 (1)
   21    68           0.1422430555           3.8706303793      T2        B2 (3)
   22    11           0.1687134798           4.5909272541      A1        A1 (1)
   23    69           0.2783723484           7.5748968177      T2        B2 (3)
   24    12           0.2783723485           7.5748968204      T2        A1 (1)
   25    45           0.2783723486           7.5748968225      T2        B1 (2)
   26    13           0.3349995229           9.1158005964      A1        A1 (1)
   27    14           0.3399146710           9.2495485783       E        A1 (1)
   28    89           0.3399146710           9.2495485783       E        A2 (4)
   29    70           0.4324552734          11.7677064301      T2        B2 (3)
   30    46           0.4324552735          11.7677064320      T2        B1 (2)
   31    15           0.4324552736          11.7677064338      T2        A1 (1)
   32    16           0.5385548670          14.6548231930      A1        A1 (1)
   33    71           0.6973529530          18.9759388615      T2        B2 (3)
   34    17           0.6973529531          18.9759388658      T2        A1 (1)
   35    47           0.6973529532          18.9759388660      T2        B1 (2)
   36    72           0.8201315480          22.3169143359      T1        B2 (3)
   37    90           0.8201315481          22.3169143383      T1        A2 (4)
   38    48           0.8201315482          22.3169143411      T1        B1 (2)
   39    73           1.0031417572          27.2968753809      T2        B2 (3)
   40    18           1.0031417577          27.2968753947      T2        A1 (1)
   41    49           1.0031417577          27.2968753949      T2        B1 (2)
   42    19           1.2205248814          33.2121710104       E        A1 (1)
   43    91           1.2205248815          33.2121710107       E        A2 (4)
   44    50           1.2526220594          34.0855796386      T2        B1 (2)
   45    74           1.2526220600          34.0855796557      T2        B2 (3)
   46    20           1.2526220607          34.0855796737      T2        A1 (1)
   47    21           1.3496020750          36.7245400655      A1        A1 (1)
   48    92           1.4215769911          38.6830771328       E        A2 (4)
   49    22           1.4215769911          38.6830771328       E        A1 (1)
   50    51           1.5159759438          41.2518032675      T2        B1 (2)
   51    75           1.5159759438          41.2518032686      T2        B2 (3)
   52    23           1.5159759439          41.2518032700      T2        A1 (1)
   53    93           1.5552558727          42.3206644894      T1        A2 (4)
   54    76           1.5552558727          42.3206644896      T1        B2 (3)
   55    52           1.5552558727          42.3206644896      T1        B1 (2)
   56    24           1.5579167439          42.3930704783      A1        A1 (1)
   57    77           1.7877750613          48.6478333752      T2        B2 (3)
   58    25           1.7877750613          48.6478333764      T2        A1 (1)
   59    53           1.7877750614          48.6478333776      T2        B1 (2)
   60    78           2.0641392777          56.1680861427      T2        B2 (3)
   61    54           2.0641392782          56.1680861550      T2        B1 (2)
   62    26           2.0641392801          56.1680862071      T2        A1 (1)
   63    27           2.6837098393          73.0274584964      A1        A1 (1)
   64    79           2.9884192089          81.3190221084      T2        B2 (3)
   65    55           2.9884192094          81.3190221196      T2        B1 (2)
   66    28           2.9884192105          81.3190221511      T2        A1 (1)
   67    80           3.4403452247          93.6165543818      T1        B2 (3)
   68    94           3.4403452249          93.6165543864      T1        A2 (4)
   69    56           3.4403452251          93.6165543909      T1        B1 (2)
   70    95           3.4732468547          94.5118532636       E        A2 (4)
   71    29           3.4732468547          94.5118532637       E        A1 (1)
   72    30           3.6062201482          98.1302405912      A1        A1 (1)
   73    57           3.6479065224          99.2645845177      T2        B1 (2)
   74    31           3.6479065227          99.2645845266      T2        A1 (1)
   75    81           3.6479065227          99.2645845266      T2        B2 (3)
   76    58           3.7908249356         103.1535923147      T2        B1 (2)
   77    82           3.7908249356         103.1535923155      T2        B2 (3)
   78    32           3.7908249356         103.1535923165      T2        A1 (1)
   79    33           3.8864426767         105.7554833690       E        A1 (1)
   80    96           3.8864426767         105.7554833691       E        A2 (4)
   81    83           3.9619545938         107.8102671286      T1        B2 (3)
   82    97           3.9619545940         107.8102671322      T1        A2 (4)
   83    59           3.9619545941         107.8102671358      T1        B1 (2)
   84    84           4.1831398037         113.8290227706      T2        B2 (3)
   85    60           4.1831398038         113.8290227725      T2        B1 (2)
   86    34           4.1831398038         113.8290227734      T2        A1 (1)
   87    85           4.1915730499         114.0585030694      T1        B2 (3)
   88    98           4.1915730501         114.0585030735      T1        A2 (4)
   89    61           4.1915730503         114.0585030790      T1        B1 (2)
   90    35           4.2461486978         115.5435819719      A1        A1 (1)
   91    99           4.4312526391         120.5805163651       E        A2 (4)
   92    36           4.4312526392         120.5805163657       E        A1 (1)
   93    62           4.5358547722         123.4268851566      T2        B1 (2)
   94    37           4.5358547722         123.4268851575      T2        A1 (1)
   95    86           4.5358547723         123.4268851588      T2        B2 (3)
   96    87           5.0020710093         136.1132741277      T2        B2 (3)
   97    63           5.0020710099         136.1132741426      T2        B1 (2)
   98    38           5.0020710156         136.1132742976      T2        A1 (1)
   99    39           5.1638322847         140.5150222795      A1        A1 (1)


  VSCF finished.

  @CHECKOUT-I, Total execution time :       0.7400 seconds.
                1.00 seconds walltime passed
 --executable xvscf finished with status            0
 --invoking executable xvtran
  @GETMEM-I,   Allocated    5722 MB of main memory.
  Partial RHF integral transformation
  Frozen-core orbitals requested within analytic derivative calculation
  Transformation of IIII integrals :
  1 pass through the AO integral file was required.
      378302 AO integrals were read.
      243098 MO integrals were written to HF2.
  Transformation of IIJJ integrals :
  1 pass through the AO integral file was required.
      644620 AO integrals were read.
      367825 MO integrals were written to HF2.
  Transformation of IJIJ integrals :
  1 pass through the AO integral file was required.
     1200397 AO integrals were read.
      692004 MO integrals were written to HF2.
  Transformation of IJKL integrals :
  1 pass through the AO integral file was required.
      790021 AO integrals were read.
      412697 MO integrals were written to HF2.
  Summary of active molecular orbitals: 
------------------------------------------------------------------------
 
  Index      Eigenvalue    Symmetry    Index      Eigenvalue    Symmetry
------------------------------------------------------------------------
     1      -405.2249669        1        51         0.4324553        2
     2       -52.1329924        1        52         0.6973530        2
     3       -46.2201044        1        53         0.8201315        2
     4        -7.1778999        1        54         1.0031418        2
     5        -5.1531355        1        55         1.2526221        2
     6        -1.6283626        1        56         1.5159759        2
     7        -1.6248263        1        57         1.5552559        2
     8        -0.7354314        1        58         1.7877751        2
     9        -0.4716626        1        59         2.0641393        2
    10       -46.2201044        2        60         2.9884192        2
    11        -5.1531355        2        61         3.4403452        2
    12        -1.6283626        2        62         3.6479065        2
    13        -0.4716626        2        63         3.7908249        2
    14       -46.2201044        3        64         3.9619546        2
    15        -5.1531355        3        65         4.1831398        2
    16        -1.6283626        3        66         4.1915731        2
    17        -0.4716626        3        67         4.5358548        2
    18        -1.6248263        4        68         5.0020710        2
    19         0.1422431        1        69         0.1422431        3
    20         0.1687135        1        70         0.2783723        3
    21         0.2783723        1        71         0.4324553        3
    22         0.3349995        1        72         0.6973530        3
    23         0.3399147        1        73         0.8201315        3
    24         0.4324553        1        74         1.0031418        3
    25         0.5385549        1        75         1.2526221        3
    26         0.6973530        1        76         1.5159759        3
    27         1.0031418        1        77         1.5552559        3
    28         1.2205249        1        78         1.7877751        3
    29         1.2526221        1        79         2.0641393        3
    30         1.3496021        1        80         2.9884192        3
    31         1.4215770        1        81         3.4403452        3
    32         1.5159759        1        82         3.6479065        3
    33         1.5579167        1        83         3.7908249        3
    34         1.7877751        1        84         3.9619546        3
    35         2.0641393        1        85         4.1831398        3
    36         2.6837098        1        86         4.1915730        3
    37         2.9884192        1        87         4.5358548        3
    38         3.4732469        1        88         5.0020710        3
    39         3.6062201        1        89         0.3399147        4
    40         3.6479065        1        90         0.8201315        4
    41         3.7908249        1        91         1.2205249        4
    42         3.8864427        1        92         1.4215770        4
    43         4.1831398        1        93         1.5552559        4
    44         4.2461487        1        94         3.4403452        4
    45         4.4312526        1        95         3.4732469        4
    46         4.5358548        1        96         3.8864427        4
    47         5.0020710        1        97         3.9619546        4
    48         5.1638323        1        98         4.1915731        4
    49         0.1422431        2        99         4.4312526        4
    50         0.2783723        2
------------------------------------------------------------------------
  @CHECKOUT-I, Total execution time :       0.5800 seconds.
                0.75 seconds walltime passed
 --executable xvtran finished with status            0
 --invoking executable xintprc
  @GETMEM-I,   Allocated    5722 MB of main memory.
  @GMOIAA-I, Processing MO integrals for spin case AA.
  @GMOIAA-I, Generation of integral list completed.
                      TYPE                NUMBER
                      ----               --------
                      PPPP                     0
                      PPPH               1227195
                      PPHH                272192
                      PHPH                146613
                      PHHH                 65448
                      HHHH                  4176

                     TOTAL               1715624

  @FORMT2-I, Second-order MP correlation energies:
              ----------------------------------------------
              E(SCF)                =-2077.717939717637 a.u.
              E2(AA)                =   -0.007147975679 a.u.
              E2(AB)                =   -0.124159267699 a.u.
              E2(TOT)               =   -0.138455219057 a.u.
              Total MP2 energy      =-2077.856394936694 a.u.
              ----------------------------------------------
   Largest T2 amplitudes for spin case AB:
       _       _                 _       _                 _       _
   i   j   a   b             i   j   a   b             i   j   a   b
-----------------------------------------------------------------------------
[  9   9  23  23]-0.02083 [ 13  13  50  50]-0.01921 [ 17  17  70  70]-0.01921
[ 13  13  49  49]-0.01878 [ 17  17  69  69]-0.01878 [ 17  17  89  89]-0.01683
[ 13  13  89  89]-0.01683 [  9   9  21  21]-0.01611 [  8   8  20  20]-0.01534
[ 17  17  19  19]-0.01486 [  9   9  49  49]-0.01486 [  9   9  69  69]-0.01486
[ 13  13  19  19]-0.01486 [ 17  17  73  73]-0.01390 [ 13  13  53  53]-0.01390
-----------------------------------------------------------------------------
   Norm of T2AB vector (   542994 symmetry allowed elements):  0.2236457322.
-----------------------------------------------------------------------------
  @CHECKOUT-I, Total execution time :       0.2400 seconds.
                0.62 seconds walltime passed
 --executable xintprc finished with status            0
 --invoking executable xvcc
  @GETMEM-I,   Allocated    5722 MB of main memory.
   CCSD(T) energy will be calculated.
   The total correlation energy is -0.138455219057 a.u.
  W(abef) AB contribution =  0.0389732977 a.u.
   The total correlation energy is -0.159171828718 a.u.
  Convergence information after     1 iterations: 
  Largest element of residual vector : -0.62655316E-02.
  Largest element of DIIS residual   : -0.62655316E-02.
  W(abef) AB contribution =  0.0517796797 a.u.
   The total correlation energy is -0.164605422145 a.u.
  Convergence information after     2 iterations: 
  Largest element of residual vector :  0.26837227E-02.
  Largest element of DIIS residual   : -0.14609955E-02.
  W(abef) AB contribution =  0.0576686567 a.u.
   The total correlation energy is -0.166903030010 a.u.
  Convergence information after     3 iterations: 
  Largest element of residual vector :  0.10543779E-02.
  Largest element of DIIS residual   :  0.86387982E-03.
  W(abef) AB contribution =  0.0579620817 a.u.
   The total correlation energy is -0.167116435799 a.u.
  Convergence information after     4 iterations: 
  Largest element of residual vector :  0.32559214E-03.
  Largest element of DIIS residual   :  0.16546743E-03.
  W(abef) AB contribution =  0.0579876835 a.u.
   The total correlation energy is -0.167140968092 a.u.
  Convergence information after     5 iterations: 
  Largest element of residual vector :  0.11067750E-03.
  Largest element of DIIS residual   :  0.36132850E-04.
  W(abef) AB contribution =  0.0579653898 a.u.
   The total correlation energy is -0.167138864429 a.u.
  Convergence information after     6 iterations: 
  Largest element of residual vector :  0.18466818E-04.
  Largest element of DIIS residual   :  0.81610329E-05.
  W(abef) AB contribution =  0.0579608303 a.u.
   The total correlation energy is -0.167138802130 a.u.
  Convergence information after     7 iterations: 
  Largest element of residual vector :  0.37216065E-05.
  Largest element of DIIS residual   :  0.36390637E-05.
  W(abef) AB contribution =  0.0579608996 a.u.
   The total correlation energy is -0.167139058143 a.u.
  Convergence information after     8 iterations: 
  Largest element of residual vector :  0.11099124E-05.
  Largest element of DIIS residual   :  0.55310827E-06.
  W(abef) AB contribution =  0.0579608449 a.u.
   The total correlation energy is -0.167139095049 a.u.
  Convergence information after     9 iterations: 
  Largest element of residual vector :  0.32329537E-06.
  Largest element of DIIS residual   :  0.16319078E-06.
  W(abef) AB contribution =  0.0579608505 a.u.
   The total correlation energy is -0.167139085182 a.u.
  Convergence information after    10 iterations: 
  Largest element of residual vector :  0.74938296E-07.
  Largest element of DIIS residual   : -0.35585166E-07.
  Amplitude equations converged in    10iterations.
   The total correlation energy is -0.167139081228 a.u.
   The CC iterations have converged.

   Largest T1 amplitudes for spin case AA:
   i       a                 i       a                 i       a    
-----------------------------------------------------------------------------
[ 13      49    ] 0.01198 [  9      19    ] 0.01198 [ 17      69    ] 0.01198
[  8      20    ]-0.00952 [ 13      50    ]-0.00561 [  9      21    ]-0.00561
[ 17      70    ]-0.00561 [ 17      71    ] 0.00489 [ 13      51    ] 0.00489
[  9      24    ] 0.00489 [  8      25    ]-0.00373 [  9      26    ] 0.00280
[ 17      72    ] 0.00280 [ 13      52    ] 0.00280 [ 17      74    ]-0.00269
-----------------------------------------------------------------------------
   Norm of T1AA vector (      441 symmetry allowed elements):  0.0282207531.
-----------------------------------------------------------------------------
   Largest T2 amplitudes for spin case AB:
       _       _                 _       _                 _       _
   i   j   a   b             i   j   a   b             i   j   a   b
-----------------------------------------------------------------------------
[ 13  13  49  49]-0.02602 [ 17  17  69  69]-0.02602 [  9   9  23  23]-0.02482
[ 13  13  50  50]-0.02293 [ 17  17  70  70]-0.02293 [ 17  17  89  89]-0.01998
[ 13  13  89  89]-0.01998 [ 17  17  19  19]-0.01944 [  9   9  49  49]-0.01944
[  9   9  69  69]-0.01944 [ 13  13  19  19]-0.01944 [ 17  17  20  20]-0.01886
[  9   9  20  20]-0.01886 [ 13  13  20  20]-0.01886 [  9   9  21  21]-0.01885
-----------------------------------------------------------------------------
   Norm of T2AB vector (   542994 symmetry allowed elements):  0.2880634457.
-----------------------------------------------------------------------------
       Summary of iterative solution of CC equations 
      -----------------------------------------------------------
                       Correlation           Total
       Iteration         Energy              Energy
      -----------------------------------------------------------
            0        -0.138455219057   -2077.856394936694  DIIS 
            1        -0.159171828718   -2077.877111546355  DIIS 
            2        -0.164605422145   -2077.882545139782  DIIS 
            3        -0.166903030010   -2077.884842747647  DIIS 
            4        -0.167116435799   -2077.885056153436  DIIS 
            5        -0.167140968092   -2077.885080685729  DIIS 
            6        -0.167138864429   -2077.885078582066  DIIS 
            7        -0.167138802130   -2077.885078519767  DIIS 
            8        -0.167139058143   -2077.885078775780  DIIS 
            9        -0.167139095049   -2077.885078812686  DIIS 
           10        -0.167139081228   -2077.885078798865  DIIS 
      -----------------------------------------------------------
      A miracle has come to pass. The CC iterations have converged.
        E(CCSD)           =   -2077.885078798865
        E(CCSD + T(CCSD)) =   -2077.888803521824
        E(CCSD(T))        =   -2077.888730566346
  @CHECKOUT-I, Total execution time :     121.7500 seconds.
 --executable xvcc finished with status            0
 --invoking executable xlambda
  @GETMEM-I,   Allocated    5722 MB of main memory.
  The Lambda equations are solved for CCSD(T).
  Initial lambda amplitudes: 
  W(abef) AB contribution =  0.0579888076 a.u.
   Frozen core orbitals in analytic derivative calculation
  Convergence information after     1 iterations: 
  Largest element of residual vector : -0.24579121E-02.
  Largest element of DIIS residual   : -0.24579121E-02.
  W(abef) AB contribution =  0.0582937627 a.u.
   Frozen core orbitals in analytic derivative calculation
  Convergence information after     2 iterations: 
  Largest element of residual vector :  0.73423565E-03.
  Largest element of DIIS residual   :  0.64718055E-03.
  W(abef) AB contribution =  0.0582666324 a.u.
   Frozen core orbitals in analytic derivative calculation
  Convergence information after     3 iterations: 
  Largest element of residual vector :  0.28012292E-03.
  Largest element of DIIS residual   :  0.13648783E-03.
  W(abef) AB contribution =  0.0582781023 a.u.
   Frozen core orbitals in analytic derivative calculation
  Convergence information after     4 iterations: 
  Largest element of residual vector :  0.99309169E-04.
  Largest element of DIIS residual   :  0.38446547E-04.
  W(abef) AB contribution =  0.0582859579 a.u.
   Frozen core orbitals in analytic derivative calculation
  Convergence information after     5 iterations: 
  Largest element of residual vector :  0.28051241E-04.
  Largest element of DIIS residual   :  0.10388202E-04.
  W(abef) AB contribution =  0.0582898420 a.u.
   Frozen core orbitals in analytic derivative calculation
  Convergence information after     6 iterations: 
  Largest element of residual vector :  0.68075159E-05.
  Largest element of DIIS residual   :  0.22779261E-05.
  W(abef) AB contribution =  0.0582905660 a.u.
   Frozen core orbitals in analytic derivative calculation
  Convergence information after     7 iterations: 
  Largest element of residual vector :  0.12297941E-05.
  Largest element of DIIS residual   :  0.12067339E-05.
  W(abef) AB contribution =  0.0582903869 a.u.
   Frozen core orbitals in analytic derivative calculation
  Convergence information after     8 iterations: 
  Largest element of residual vector :  0.45145508E-06.
  Largest element of DIIS residual   :  0.28981730E-06.
  W(abef) AB contribution =  0.0582903106 a.u.
   Frozen core orbitals in analytic derivative calculation
  Convergence information after     9 iterations: 
  Largest element of residual vector :  0.11604812E-06.
  Largest element of DIIS residual   :  0.29152558E-07.
  Amplitude equations converged in     9 iterations.
 
  Full Fbar is constructed for CCSD second derivatives
 
      The lambda equations have converged.
  @CHECKOUT-I, Total execution time :      18.1500 seconds.
 --executable xlambda finished with status            0
 --invoking executable xdens
  @GETMEM-I,   Allocated    5722 MB of main memory.
  CCSD(T) density and intermediates are calculated.
  The perturbed orbitals are chosen canonical.
  Direct algorithm used for all contributions involving G(AB,CD).
  W(abef) AB contribution =  0.0585048474 a.u.
  W(abef) AB contribution =  0.0578963424 a.u.
                     1                     1
                     2                     2
                     3                     3
                     4                     4
 Total CPU time :   0.129999876022339     
  processed                 378302  ao basis integrals from 
                   631  buffers.
 Total CPU time :   0.349999904632568     
  processed                1200397  ao basis integrals from 
                  2001  buffers.
 Total CPU time :   0.170000076293945     
  processed                 644620  ao basis integrals from 
                  1075  buffers.
 Total CPU time :   0.200000286102295     
  processed                 790021  ao basis integrals from 
                  1317  buffers.
  The iterative expansion of D(ai) converged after  14 iterations.
  ----------------------------------------------------------------------
                 Natural orbital occupation numbers
  ----------------------------------------------------------------------
  2.00022  2.00022  2.00022  2.00000  2.00000  2.00000  2.00000  2.00000
  2.00000  2.00000  2.00000  2.00000  2.00000  2.00000  1.96598  1.94746
  1.94746  1.94746  0.02901  0.02443  0.02443  0.02443  0.01129  0.01129
  0.00804  0.00804  0.00804  0.00479  0.00463  0.00462  0.00462  0.00361
  0.00361  0.00361  0.00126  0.00126  0.00126  0.00078  0.00074  0.00074
  0.00074  0.00060  0.00060  0.00031  0.00031  0.00031  0.00030  0.00030
  0.00023  0.00023  0.00023  0.00022  0.00017  0.00017  0.00017  0.00012
  0.00011  0.00011  0.00011  0.00006  0.00006  0.00006  0.00006  0.00006
  0.00005  0.00005  0.00005  0.00005  0.00005  0.00005  0.00005  0.00004
  0.00004  0.00004  0.00003  0.00003  0.00003  0.00003  0.00003  0.00003
  0.00003  0.00003  0.00003  0.00002  0.00002  0.00002  0.00002  0.00002
  0.00002  0.00002  0.00002  0.00002  0.00001  0.00001  0.00001  0.00001
  0.00001  0.00001  0.00001
  Trace of density matrix :  36.0001548221.
  ----------------------------------------------------------------------
  Density calculation successfully completed.
  @CHECKOUT-I, Total execution time :       4.9300 seconds.
                5.38 seconds walltime passed
 --executable xdens finished with status            0
 --invoking executable xvdint
  @GETMEM-I,   Allocated    5722 MB of main memory.
 One- and two-electron integral derivatives are calculated
 for RHF-CC/MBPT hessians and dipole derivatives.
 Spherical gaussians are used.
  Evaluation of 1e integral derivatives required    0.07 seconds.
  Evaluation of 2el integral derivatives
  Evaluation of 2e integral derivatives required   11.26 seconds.
  @CHECKOUT-I, Total execution time :      11.3200 seconds.
               11.50 seconds walltime passed
 --executable xvdint finished with status            0
 --invoking executable xcphf
  @GETMEM-I,   Allocated    5722 MB of main memory.
 Coupled-perturbed HF (CPHF) equations 
 are solved for RHF-CC/MBPT hessian and dipole derivatives.
  relativistic is                      6
  relativistic is                      5
  relativistic is                      5
  relativistic is                      2
  efields on                     5
  efields on                     5
  efields on                     6
 There are 6 perturbations within irrep 1.
 CPHF converged after  23 iterations.
  Calculation of total derivative of f                     6
  Tolerances in treatment of perturbed canonical orbitals:
     Tol1:    0.00001000 Tol2:   25.00000000
  uij elements
 0.0000000  0.0000000 -0.0000015  0.0000000 -0.0000008  0.0000008  0.0000000
 0.0000000  0.0000051  0.0000000  0.0000000  0.0000598  0.0000000 -0.0000016
-0.0000589  0.0000000  0.0000000 -0.0000461  0.0000003 -0.0000683  0.0000000
 0.0000399  0.0000000  0.0000000  0.0000362  0.0000022  0.0000000  0.0000000
 0.0000000  0.0000031  0.0000000  0.0035796 -0.0000476  0.0000000  0.0000000
 0.0003050  0.0000188  0.0001291  0.0000000 -0.0042201  0.0000000  0.0000000
-0.0009894  0.0007435  0.0000000 -0.0000321 -0.0001814  0.0000000  0.0015115
 0.0000000  0.0000000  0.3711635 -0.0247070  0.0000000  0.0000000  0.0000000
-0.0000282  0.0000000  0.0009490 -0.3700824  0.0000000  0.0000000  0.0087429
 0.0000000  0.0000000  0.0004751  0.0000000 -0.0071807  0.0534177  0.0000000
 0.0000000  0.3135372  0.0020513  0.0143474  0.0000000 -0.0668118  0.0000000
 0.0000000 -0.0383031 -0.3889085  0.0000000  0.0000016 -0.0000423 -0.0000044
 0.0000039 -0.0000030  0.0003160  0.0019865 -0.0009047  0.0000527 -0.0030552
 0.0006591  0.0148641 -0.0019938  0.0337453 -0.0252361  0.0536147 -0.0000016
 0.0000423  0.0000044 -0.0000039  0.0000030 -0.0003160 -0.0019865  0.0009047
-0.0000527  0.0030552 -0.0006591 -0.0148641  0.0019938 -0.0337453  0.0252361
-0.0536147  0.0000000
  canonical perturbed fock matrix
 0.0000000  0.0000000  0.0000000  0.0000000  0.0000000  0.0000000  0.0000000
 0.0000000  0.0000000  0.0000000  0.0000000  0.0000000  0.0000000  0.0000000
 0.0000000  0.0000000  0.0000000  0.0000000  0.0000000  0.0000000  0.0000000
 0.0000000  0.0000000  0.0000000  0.0000000  0.0000000  0.0000000  0.0000000
 0.0000000  0.0000000  0.0000000  0.0000000  0.0000000  0.0000000  0.0000000
 0.0000000  0.0000000  0.0000000  0.0000000  0.0000000  0.0000000  0.0000000
 0.0000000  0.0000000  0.0000000  0.0000000  0.0000000  0.0000000  0.0000000
 0.0000000  0.0000000  0.0000000  0.0000000  0.0000000  0.0000000  0.0000000
 0.0000000  0.0000000  0.0000000  0.0000000  0.0000000  0.0000000  0.0000000
 0.0000000  0.0000000  0.0000000  0.0000000  0.0000000  0.0000000  0.0000000
 0.0000000  0.0000000  0.0000000  0.0000000  0.0000000  0.0000000  0.0000000
 0.0000000  0.0000000  0.0000000  0.0000000 -0.0015726  0.0000000  0.0000000
 0.0000000  0.0000000 -0.0000707  0.0000000  0.0000000  0.0000000  0.0000000
-0.0000476  0.0000000  0.0000000  0.0000000  0.0000000  0.1077406  0.0015726
 0.0000000  0.0000000  0.0000000  0.0000000  0.0000707  0.0000000  0.0000000
 0.0000000  0.0000000  0.0000476  0.0000000  0.0000000  0.0000000  0.0000000
-0.1077406  0.0000000
  Tolerances in treatment of perturbed canonical orbitals:
     Tol1:    0.00001000 Tol2:   25.00000000
  uij elements
 0.0000001  0.0000035 -0.0000063 -0.0000008 -0.0000025 -0.0000002  0.0000005
-0.0000017  0.0000005 -0.0000036 -0.0000039 -0.0014747 -0.0000018  0.0000521
-0.0000125 -0.0000156  0.0000238 -0.0000054  0.0000055  0.0014680 -0.0000011
 0.0000424  0.0000092 -0.0000004 -0.0001025  0.0000141 -0.0000040 -0.0000004
 0.0000263 -0.0000101 -0.0000491 -0.0050626 -0.0001374  0.0001452  0.0005305
 0.0002934  0.0000137  0.0000420  0.0000230  0.0046033 -0.0002332 -0.0005277
 0.0028152  0.0003258  0.0008373 -0.0000246 -0.0001646 -0.0000309  0.0011870
 0.0012265 -0.0004994  0.3883613 -0.0098016 -0.0089257  0.0000014  0.0000221
 0.0000936 -0.0001693 -0.0026618 -0.3885102 -0.0001748 -0.0043314 -0.0043758
 0.0009211  0.0064396  0.0010082 -0.0306156 -0.0173096  0.0169337  0.0119737
-0.0526187  0.2131242  0.0014260  0.0099708  0.0014492 -0.0463023 -0.0247923
 0.0158142  0.0162816 -0.3238503 -0.0395532  0.0000000 -0.0000229  0.0000797
 0.0000068  0.0000230 -0.0000099 -0.0025892  0.0001620 -0.0000773  0.0025264
-0.0000744 -0.0007174  0.0000318 -0.0008924 -0.0002518 -0.0011999 -0.0000015
 0.0000183 -0.0001005 -0.0000600  0.0000237 -0.0002954  0.0013009  0.0016484
 0.0000446 -0.0001269 -0.0014868 -0.0227137  0.0018673 -0.0300949  0.0545579
 0.0170327 -0.0001361
  canonical perturbed fock matrix
 0.0465013  0.0000000  0.0000000  0.0000000  0.0000000  0.0000000  0.0000000
 0.0000000  0.0000000  0.0000000  0.0391998  0.0000000  0.0000000  0.0000000
 0.0000000  0.0000000  0.0000000  0.0000000  0.0000000  0.0000000  0.0405261
 0.0000000  0.0000000  0.0000000  0.0000000  0.0000000  0.0000000  0.0000000
 0.0000000  0.0000000  0.0337308  0.0000000  0.0000000  0.0000000  0.0000000
 0.0000000  0.0000000  0.0000000  0.0000000  0.0000000  0.0344825  0.0000000
 0.0000000  0.0000000  0.0000000  0.0000000  0.0000000  0.0000000  0.0000000
 0.0000000  0.0319731  0.0000000  0.0000000  0.0000000  0.0000000  0.0000000
 0.0000000  0.0000000  0.0000000  0.0000000  0.0357144  0.0000000  0.0000000
 0.0000000  0.0000000  0.0000000  0.0000000  0.0000000  0.0000000  0.0000000
-0.0504334  0.0000000  0.0000000  0.0000000  0.0000000  0.0000000  0.0000000
 0.0000000  0.0000000  0.0000000 -0.0511852  0.0395352  0.0000000  0.0000000
 0.0000000  0.0000000  0.0342650  0.0000000  0.0000000  0.0000000  0.0000000
 0.0348800  0.0000000  0.0000000  0.0000000  0.0000000  0.0106046  0.0401045
 0.0000000  0.0000000  0.0000000  0.0000000  0.0320916  0.0000000  0.0000000
 0.0000000  0.0000000  0.0293432  0.0000000  0.0000000  0.0000000  0.0000000
-0.0391687  0.0333294
  Tolerances in treatment of perturbed canonical orbitals:
     Tol1:    0.00001000 Tol2:   25.00000000
  uij elements
-0.0000001 -0.0000025  0.0000007  0.0000006  0.0000004 -0.0000004  0.0000006
 0.0000012 -0.0000026  0.0000025  0.0000028 -0.0000299  0.0000012  0.0000008
 0.0000295 -0.0000220 -0.0000168  0.0000231 -0.0000002  0.0000342  0.0000003
-0.0000200  0.0000097  0.0000145 -0.0000181 -0.0000011  0.0000348  0.0000003
-0.0000186 -0.0000015  0.0000347 -0.0017898  0.0000238  0.0002053 -0.0003751
-0.0001525 -0.0000094 -0.0000646 -0.0000168  0.0021101  0.0000509  0.0005378
 0.0004947 -0.0003717 -0.0006880  0.0000161  0.0000907  0.0000013 -0.0007557
-0.0008294  0.0007508 -0.1855817  0.0123535  0.0102569  0.0000020  0.0000312
 0.0000141 -0.0002395 -0.0004745  0.1850412  0.0000826 -0.0061255 -0.0043714
-0.0006513 -0.0045535 -0.0002376  0.0216485  0.0035903 -0.0267089  0.0169333
 0.0372070 -0.1567686 -0.0010256 -0.0071737 -0.0003181  0.0334059  0.0043805
-0.0272179  0.0191516  0.1944542 -0.0391638  0.0000000  0.0000147  0.0000024
 0.0000008 -0.0000148  0.0000069 -0.0006201 -0.0001398 -0.0000045  0.0006603
 0.0000236 -0.0011206 -0.0000278  0.0006581  0.0014357  0.0011610  0.0000016
-0.0000277 -0.0000019  0.0000048 -0.0000178  0.0003229  0.0013664 -0.0010444
 0.0000482 -0.0023949  0.0006827  0.0137434 -0.0020217  0.0344034 -0.0238004
 0.0547757  0.0001373
  canonical perturbed fock matrix
-0.0328814  0.0000000  0.0000000  0.0000000  0.0000000  0.0000000  0.0000000
 0.0000000  0.0000000  0.0000000 -0.0277184  0.0000000  0.0000000  0.0000000
 0.0000000  0.0000000  0.0000000  0.0000000  0.0000000  0.0000000 -0.0276575
 0.0000000  0.0000000  0.0000000  0.0000000  0.0000000  0.0000000  0.0000000
 0.0000000  0.0000000 -0.0238513  0.0000000  0.0000000  0.0000000  0.0000000
 0.0000000  0.0000000  0.0000000  0.0000000  0.0000000 -0.0225384  0.0000000
 0.0000000  0.0000000  0.0000000  0.0000000  0.0000000  0.0000000  0.0000000
 0.0000000 -0.0228043  0.0000000  0.0000000  0.0000000  0.0000000  0.0000000
 0.0000000  0.0000000  0.0000000  0.0000000 -0.0227242  0.0000000  0.0000000
 0.0000000  0.0000000  0.0000000  0.0000000  0.0000000  0.0000000  0.0000000
 0.0356618  0.0000000  0.0000000  0.0000000  0.0000000  0.0000000  0.0000000
 0.0000000  0.0000000  0.0000000 -0.0159956 -0.0278700  0.0000000  0.0000000
 0.0000000  0.0000000 -0.0243475  0.0000000  0.0000000  0.0000000  0.0000000
-0.0225846  0.0000000  0.0000000  0.0000000  0.0000000 -0.0176769 -0.0294426
 0.0000000  0.0000000  0.0000000  0.0000000 -0.0244182  0.0000000  0.0000000
 0.0000000  0.0000000 -0.0226322  0.0000000  0.0000000  0.0000000  0.0000000
 0.0900637 -0.0260971
  Tolerances in treatment of perturbed canonical orbitals:
     Tol1:    0.00001000 Tol2:   25.00000000
  uij elements
-0.0000001 -0.0000035 -0.0000063  0.0000008 -0.0000025 -0.0000002 -0.0000005
 0.0000017  0.0000005  0.0000036  0.0000039 -0.0014747  0.0000018  0.0000521
-0.0000125  0.0000156 -0.0000238 -0.0000054  0.0000055  0.0014680  0.0000011
 0.0000424 -0.0000092  0.0000004 -0.0001025  0.0000141  0.0000040  0.0000004
-0.0000263 -0.0000101  0.0000491 -0.0050626 -0.0001374 -0.0001452 -0.0005305
 0.0002934  0.0000137  0.0000420 -0.0000230  0.0046033  0.0002332  0.0005277
 0.0028152  0.0003258 -0.0008373 -0.0000246 -0.0001646  0.0000309  0.0011870
-0.0012265  0.0004994  0.3883613 -0.0098016  0.0089257 -0.0000014 -0.0000221
 0.0000936  0.0001693 -0.0026618 -0.3885102  0.0001748  0.0043314 -0.0043758
-0.0009211 -0.0064396  0.0010082  0.0306156 -0.0173096  0.0169337 -0.0119737
 0.0526187  0.2131242  0.0014260  0.0099708 -0.0014492 -0.0463023  0.0247923
-0.0158142  0.0162816 -0.3238503  0.0395532  0.0000015 -0.0000183  0.0001005
 0.0000600 -0.0000237  0.0002954 -0.0013009 -0.0016484 -0.0000446  0.0001269
 0.0014868  0.0227137 -0.0018673  0.0300949 -0.0545579 -0.0170327  0.0000000
 0.0000229 -0.0000797 -0.0000068 -0.0000230  0.0000099  0.0025892 -0.0001620
 0.0000773 -0.0025264  0.0000744  0.0007174 -0.0000318  0.0008924  0.0002518
 0.0011999  0.0001361
  canonical perturbed fock matrix
-0.0465013  0.0000000  0.0000000  0.0000000  0.0000000  0.0000000  0.0000000
 0.0000000  0.0000000  0.0000000 -0.0391998  0.0000000  0.0000000  0.0000000
 0.0000000  0.0000000  0.0000000  0.0000000  0.0000000  0.0000000 -0.0405261
 0.0000000  0.0000000  0.0000000  0.0000000  0.0000000  0.0000000  0.0000000
 0.0000000  0.0000000 -0.0337308  0.0000000  0.0000000  0.0000000  0.0000000
 0.0000000  0.0000000  0.0000000  0.0000000  0.0000000 -0.0344825  0.0000000
 0.0000000  0.0000000  0.0000000  0.0000000  0.0000000  0.0000000  0.0000000
 0.0000000 -0.0319731  0.0000000  0.0000000  0.0000000  0.0000000  0.0000000
 0.0000000  0.0000000  0.0000000  0.0000000 -0.0357144  0.0000000  0.0000000
 0.0000000  0.0000000  0.0000000  0.0000000  0.0000000  0.0000000  0.0000000
 0.0504334  0.0000000  0.0000000  0.0000000  0.0000000  0.0000000  0.0000000
 0.0000000  0.0000000  0.0000000  0.0511852 -0.0401045  0.0000000  0.0000000
 0.0000000  0.0000000 -0.0320916  0.0000000  0.0000000  0.0000000  0.0000000
-0.0293432  0.0000000  0.0000000  0.0000000  0.0000000  0.0391687 -0.0395352
 0.0000000  0.0000000  0.0000000  0.0000000 -0.0342650  0.0000000  0.0000000
 0.0000000  0.0000000 -0.0348800  0.0000000  0.0000000  0.0000000  0.0000000
-0.0106046 -0.0333294
  Tolerances in treatment of perturbed canonical orbitals:
     Tol1:    0.00001000 Tol2:   25.00000000
  uij elements
 0.0000001  0.0000025  0.0000007 -0.0000006  0.0000004 -0.0000004 -0.0000006
-0.0000012 -0.0000026 -0.0000025 -0.0000028 -0.0000299 -0.0000012  0.0000008
 0.0000295  0.0000220  0.0000168  0.0000231 -0.0000002  0.0000342 -0.0000003
-0.0000200 -0.0000097 -0.0000145 -0.0000181 -0.0000011 -0.0000348 -0.0000003
 0.0000186 -0.0000015 -0.0000347 -0.0017898  0.0000238 -0.0002053  0.0003751
-0.0001525 -0.0000094 -0.0000646  0.0000168  0.0021101 -0.0000509 -0.0005378
 0.0004947 -0.0003717  0.0006880  0.0000161  0.0000907 -0.0000013 -0.0007557
 0.0008294 -0.0007508 -0.1855817  0.0123535 -0.0102569 -0.0000020 -0.0000312
 0.0000141  0.0002395 -0.0004745  0.1850412 -0.0000826  0.0061255 -0.0043714
 0.0006513  0.0045535 -0.0002376 -0.0216485  0.0035903 -0.0267089 -0.0169333
-0.0372070 -0.1567686 -0.0010256 -0.0071737  0.0003181  0.0334059 -0.0043805
 0.0272179  0.0191516  0.1944542  0.0391638 -0.0000016  0.0000277  0.0000019
-0.0000048  0.0000178 -0.0003229 -0.0013664  0.0010444 -0.0000482  0.0023949
-0.0006827 -0.0137434  0.0020217 -0.0344034  0.0238004 -0.0547757  0.0000000
-0.0000147 -0.0000024 -0.0000008  0.0000148 -0.0000069  0.0006201  0.0001398
 0.0000045 -0.0006603 -0.0000236  0.0011206  0.0000278 -0.0006581 -0.0014357
-0.0011610 -0.0001373
  canonical perturbed fock matrix
 0.0328814  0.0000000  0.0000000  0.0000000  0.0000000  0.0000000  0.0000000
 0.0000000  0.0000000  0.0000000  0.0277184  0.0000000  0.0000000  0.0000000
 0.0000000  0.0000000  0.0000000  0.0000000  0.0000000  0.0000000  0.0276575
 0.0000000  0.0000000  0.0000000  0.0000000  0.0000000  0.0000000  0.0000000
 0.0000000  0.0000000  0.0238513  0.0000000  0.0000000  0.0000000  0.0000000
 0.0000000  0.0000000  0.0000000  0.0000000  0.0000000  0.0225384  0.0000000
 0.0000000  0.0000000  0.0000000  0.0000000  0.0000000  0.0000000  0.0000000
 0.0000000  0.0228043  0.0000000  0.0000000  0.0000000  0.0000000  0.0000000
 0.0000000  0.0000000  0.0000000  0.0000000  0.0227242  0.0000000  0.0000000
 0.0000000  0.0000000  0.0000000  0.0000000  0.0000000  0.0000000  0.0000000
-0.0356618  0.0000000  0.0000000  0.0000000  0.0000000  0.0000000  0.0000000
 0.0000000  0.0000000  0.0000000  0.0159956  0.0294426  0.0000000  0.0000000
 0.0000000  0.0000000  0.0244182  0.0000000  0.0000000  0.0000000  0.0000000
 0.0226322  0.0000000  0.0000000  0.0000000  0.0000000 -0.0900637  0.0278700
 0.0000000  0.0000000  0.0000000  0.0000000  0.0243475  0.0000000  0.0000000
 0.0000000  0.0000000  0.0225846  0.0000000  0.0000000  0.0000000  0.0000000
 0.0176769  0.0260971
  Tolerances in treatment of perturbed canonical orbitals:
     Tol1:    0.00001000 Tol2:   25.00000000
  uij elements
 0.0000000  0.0000000  0.0000796  0.0000000  0.0000203  0.0000023  0.0000000
 0.0000000 -0.0000024  0.0000000  0.0000000  0.0186271  0.0000000 -0.0007757
 0.0003717  0.0000000  0.0000000  0.0001119 -0.0000796 -0.0186271  0.0000000
-0.0004833  0.0000000  0.0000000  0.0012608  0.0000770  0.0000000  0.0000000
 0.0000000  0.0004833  0.0000000  0.1159416 -0.0084885  0.0000000  0.0000000
 0.0022273 -0.0000203  0.0007757  0.0000000 -0.1159416  0.0000000  0.0000000
[...]
 H #2 y    0.000000   -0.065553
 H #2 z    0.000000    0.025050   -0.083266

 H #1 x   -0.000153   -0.001317   -0.001860   -0.065570
 H #1 y   -0.001317   -0.000153    0.001860    0.000000   -0.100992
 H #1 z   -0.001860    0.001860    0.001163   -0.025047    0.000000   -0.083281

 H #2 x   -0.000153    0.001317    0.001860    0.003785    0.000000    0.000000
 H #2 y    0.001317   -0.000153    0.001860    0.000000   -0.001463    0.000000
 H #2 z    0.001860    0.001860    0.001163    0.000000    0.000000   -0.001467


           H #2 x      H #2 y      H #2 z

 H #2 x   -0.065570
 H #2 y    0.000000   -0.100992
 H #2 z    0.025047    0.000000   -0.083281




                Electronic contributions to dipole moment
                -----------------------------------------

                               au             Debye

                    z      0.00000055      0.00000139

  Conversion factor used: 1 a.u. =   2.54174691 Debye 



   Electronic contributions to static part of dipole moment derivatives
   --------------------------------------------------------------------


                     Total dipole moment derivatives
                     -------------------------------


           Symmetry 1
                              Ez

               GE#1 z   -32.27300333
               H #2 y    -0.56712619
               H #2 z    -1.86357503
               H #3 x    -0.56712304
               H #3 z    -1.86357647

           Symmetry 2
                              Ex

               GE#1 x   -32.27302043
               H #2 x    -2.26458734
               H #3 x    -1.46254706
               H #3 z    -0.56711158

           Symmetry 3
                              Ey

               GE#1 y   -32.27302371
               H #2 y    -1.46254488
               H #2 z    -0.56711888
               H #3 y    -2.26458623



                       Ex          Ey          Ez

      GE#1    x  -32.273020    0.000000    0.000000
      GE#1    y    0.000000  -32.273024    0.000000
      GE#1    z    0.000000    0.000000  -32.273003

      H #21   x   -1.132294    0.000000    0.000000
      H #21   y    0.000000   -0.731272   -0.283563
      H #21   z    0.000000   -0.283559   -0.931788

      H #22   x   -1.132294    0.000000    0.000000
      H #22   y    0.000000   -0.731272    0.283563
      H #22   z    0.000000    0.283559   -0.931788

      H #31   x   -0.731274    0.000000   -0.283562
      H #31   y    0.000000   -1.132293    0.000000
      H #31   z   -0.283556    0.000000   -0.931788

      H #32   x   -0.731274    0.000000    0.283562
      H #32   y    0.000000   -1.132293    0.000000
      H #32   z    0.283556    0.000000   -0.931788

  Evaluation of 1e integral derivatives required    0.10 seconds.
  Evaluation of 2el integral derivatives

                      Two-electron integral gradient
                      ------------------------------

                         GE#1 z     0.0000186528
                         H #2 y     9.9693525085
                         H #2 z    -7.0493845383
                         H #3 x    -9.9693473880
                         H #3 z     7.0493658855


 GE#1       0.0000000000            0.0000000000            0.0000186528
 H #2 1     0.0000000000            4.9846762542           -3.5246922691
 H #2 2     0.0000000000           -4.9846762542           -3.5246922691
 H #3 1    -4.9846736940            0.0000000000            3.5246829427
 H #3 2     4.9846736940            0.0000000000            3.5246829427


  Evaluation of 2e integral derivatives required   23.28 seconds.

                            Molecular gradient
                            ------------------

                         GE#1 z    -0.0000001814
                         H #2 y    -0.0000002101
                         H #2 z    -0.0000001336
                         H #3 x     0.0000001052
                         H #3 z     0.0000003150


 GE#1       0.0000000000            0.0000000000           -0.0000001814
 H #2 1     0.0000000000           -0.0000001051           -0.0000000668
 H #2 2     0.0000000000            0.0000001051           -0.0000000668
 H #3 1     0.0000000526            0.0000000000            0.0000001575
 H #3 2    -0.0000000526            0.0000000000            0.0000001575


  Molecular gradient norm 0.453E-06

                            Molecular hessian
                            -----------------


           Symmetry 1

           GE#1 z      H #2 y      H #2 z      H #3 x      H #3 z

 GE#1 z    0.275608
 H #2 y    0.135737    0.262350
 H #2 z   -0.137790   -0.136900    0.150425
 H #3 x    0.135742    0.001727    0.001163    0.262356
 H #3 z   -0.137818    0.001163   -0.012635   -0.136906    0.150452


           Symmetry 2

           GE#1 x      H #2 x      H #3 x      H #3 z

 GE#1 x    0.275554
 H #2 x   -0.041851    0.039053
 H #3 x   -0.233704    0.002798    0.230906
 H #3 z    0.135738    0.025450   -0.161188    0.132228


           Symmetry 3

           GE#1 y      H #2 y      H #2 z      H #3 y

 GE#1 y    0.275513
 H #2 y   -0.233703    0.230903
 H #2 z    0.135732   -0.161180    0.132195
 H #3 y   -0.041810    0.002800    0.025447    0.039010


           Symmetry 4

           H #2 x      H #3 y

 H #2 x    0.032862
 H #3 y   -0.032597    0.032821




           GE#1 x      GE#1 y      GE#1 z      H #1 x      H #1 y      H #1 z

 GE#1 x    0.275554
 GE#1 y    0.000000    0.275513
 GE#1 z    0.000000    0.000000    0.275608

 H #1 x   -0.020925    0.000000    0.000000    0.017979
 H #1 y    0.000000   -0.116852    0.067869    0.000000    0.123313
 H #1 z    0.000000    0.067866   -0.068895    0.000000   -0.074520    0.070655

 H #2 x   -0.020925    0.000000    0.000000    0.001548    0.000000    0.000000
 H #2 y    0.000000   -0.116852   -0.067869    0.000000   -0.007862   -0.006070
 H #2 z    0.000000   -0.067866   -0.068895    0.000000    0.006070    0.004557

 H #1 x   -0.116852    0.000000    0.067871    0.000699    0.000432    0.000291
 H #1 y    0.000000   -0.020905    0.000000   -0.008149    0.000700    0.006362
 H #1 z    0.067869    0.000000   -0.068909    0.006362    0.000291   -0.003159

 H #2 x   -0.116852    0.000000   -0.067871    0.000699   -0.000432   -0.000291
 H #2 y    0.000000   -0.020905    0.000000    0.008149    0.000700    0.006362
 H #2 z   -0.067869    0.000000   -0.068909   -0.006362    0.000291   -0.003159


           H #2 x      H #2 y      H #2 z      H #1 x      H #1 y      H #1 z

 H #2 x    0.017979
 H #2 y    0.000000    0.123313
 H #2 z    0.000000    0.074520    0.070655

 H #1 x    0.000699   -0.000432    0.000291    0.123315
 H #1 y    0.008149    0.000700   -0.006362    0.000000    0.017958
 H #1 z    0.006362   -0.000291   -0.003159   -0.074523    0.000000    0.070670

 H #2 x    0.000699    0.000432   -0.000291   -0.007862    0.000000   -0.006071
 H #2 y   -0.008149    0.000700   -0.006362    0.000000    0.001547    0.000000
 H #2 z   -0.006362   -0.000291   -0.003159    0.006071    0.000000    0.004556


           H #2 x      H #2 y      H #2 z

 H #2 x    0.123315
 H #2 y    0.000000    0.017958
 H #2 z    0.074523    0.000000    0.070670




                           Total dipole moment
                           -------------------

                               au             Debye

                    z      0.00000055      0.00000139

  Conversion factor used: 1 a.u. =   2.54174691 Debye 



                     Total dipole moment derivatives
                     -------------------------------


           Symmetry 1
                              Ez

               GE#1 z     0.96981002
               H #2 y     0.11131099
               H #2 z    -0.48490510
               H #3 x     0.11130955
               H #3 z    -0.48490492

           Symmetry 2
                              Ex

               GE#1 x     0.96980071
               H #2 x    -0.40619250
               H #3 x    -0.56360820
               H #3 z     0.11130838

           Symmetry 3
                              Ey

               GE#1 y     0.96980173
               H #2 y    -0.56360939
               H #2 z     0.11131010
               H #3 y    -0.40619234



                       Ex          Ey          Ez

      GE#1    x    0.969801    0.000000    0.000000
      GE#1    y    0.000000    0.969802    0.000000
      GE#1    z    0.000000    0.000000    0.969810

      H #21   x   -0.203096    0.000000    0.000000
      H #21   y    0.000000   -0.281805    0.055655
      H #21   z    0.000000    0.055655   -0.242453

      H #22   x   -0.203096    0.000000    0.000000
      H #22   y    0.000000   -0.281805   -0.055655
      H #22   z    0.000000   -0.055655   -0.242453

      H #31   x   -0.281804    0.000000    0.055655
      H #31   y    0.000000   -0.203096    0.000000
      H #31   z    0.055654    0.000000   -0.242452

      H #32   x   -0.281804    0.000000   -0.055655
      H #32   y    0.000000   -0.203096    0.000000
      H #32   z   -0.055654    0.000000   -0.242452

  @CHECKOUT-I, Total execution time :      23.3800 seconds.
               24.50 seconds walltime passed
 --executable xvdint finished with status            0
 --invoking executable xjoda
  masses used (in AMU) in vibrational analysis: 
  73.921177400      1.007825035      1.007825035
   1.007825035      1.007825035
 number of irreducible representations                     4
                     Normal Coordinate Analysis
  ----------------------------------------------------------------
    Irreducible         Harmonic       Infrared        Type 
   Representation       Frequency      Intensity 
  ----------------------------------------------------------------
                       (cm-1)         (km/mol)
  ----------------------------------------------------------------
      ----                 0.0764i        0.0000      TRANSLATION
      ----                 0.0001i        0.0000      TRANSLATION
      ----                 0.0764         0.0000      TRANSLATION
      ----                52.5320         0.0000       ROTATION  
      ----                55.1692         0.0000       ROTATION  
      ----                56.5403         0.0000       ROTATION  
        A2               835.0224       121.2423       VIBRATION 
                         835.1089       121.2920       VIBRATION 
                         835.3989       121.3013       VIBRATION 
        A1               926.0961         0.0000       VIBRATION 
        A2               926.2166         0.0000       VIBRATION 
         E              2160.9822       130.5874       VIBRATION 
         E              2160.9823       130.5361       VIBRATION 
                        2161.0458       130.5260       VIBRATION 
        A1              2167.2385         0.0026       VIBRATION 
  ----------------------------------------------------------------
 
 
                                   Normal Coordinates 

                A2                                                    
               835.02                    835.11                    835.40 
             VIBRATION                 VIBRATION                 VIBRATION 
 GE     0.000 0.0000  0.1897    0.0000  0.1897  0.0000    0.1897  0.0000  0.0000
 H      0.000-0.2759 -0.4065    0.0000 -0.2113 -0.2755   -0.6013  0.0000  0.0000
 H      0.000 0.2759 -0.4065    0.0000 -0.2113  0.2755   -0.6013  0.0000  0.0000
 H     -0.275 0.0000 -0.4059    0.0000 -0.6012  0.0000   -0.2112  0.0000 -0.2754
 H      0.275 0.0000 -0.4059    0.0000 -0.6012  0.0000   -0.2112  0.0000  0.2754

                A1                        A2                         E
               926.10                    926.22                   2160.98 
             VIBRATION                 VIBRATION                 VIBRATION 
 GE     0.000 0.0000  0.0001    0.0000  0.0000  0.0000    0.0000  0.0000  0.1254
 H      0.000 0.2885  0.4080    0.5002  0.0000  0.0000    0.0000  0.4189 -0.2697
 H      0.000-0.2885  0.4080   -0.5002  0.0000  0.0000    0.0000 -0.4189 -0.2697
 H     -0.288 0.0000 -0.4085    0.0000 -0.4998  0.0000    0.4153  0.0000 -0.2672
 H      0.288 0.0000 -0.4085    0.0000  0.4998  0.0000   -0.4153  0.0000 -0.2672

                 E                                                  A1
              2160.98                   2161.05                   2167.24 
             VIBRATION                 VIBRATION                 VIBRATION 
 GE     0.000 0.1254  0.0000    0.1253  0.0000  0.0000    0.0000  0.0000  0.0006
 H      0.000-0.5634  0.4172    0.0266  0.0000  0.0000    0.0000 -0.4064  0.2875
 H      0.000-0.5634 -0.4172    0.0266  0.0000  0.0000    0.0000  0.4064  0.2875
 H      0.000 0.0266  0.0000   -0.5633  0.0000  0.4172    0.4100  0.0000 -0.2899
 H      0.000 0.0266  0.0000   -0.5633  0.0000 -0.4172   -0.4100  0.0000 -0.2899
            Gradient vector in normal coordinate representation
         ----------------------------------------------------------
   i    W(I)     dE/dQ(i)     dE/dq      dE/dq     [dE/dQ(i)]/w(i)
                              (cm-1)      (eV)        (relative)
         ----------------------------------------------------------
    7   835.02 -0.0000000484     -0.00404      0.00000   0.0000000000
    8   835.11  0.0000000000      0.00000      0.00000   0.0000000000
    9   835.40  0.0000000000      0.00000      0.00000   0.0000000000
   10   926.10 -0.0000002732     -0.02162      0.00000   0.0000000000
   11   926.22  0.0000000000      0.00000      0.00000   0.0000000000
   12  2160.98 -0.0000000947     -0.00491      0.00000   0.0000000000
   13  2160.98  0.0000000000      0.00000      0.00000   0.0000000000
   14  2161.05  0.0000000000      0.00000      0.00000   0.0000000000
   15  2167.24 -0.0000000012     -0.00006      0.00000   0.0000000000
         ----------------------------------------------------------
 
                      Normal modes in internal coordinates 
---------------------------------------------------------------------------
              0.076         0.000         0.076        52.532        55.169
---------------------------------------------------------------------------
B1         0.000000      0.000000      0.000000      0.000061      0.000000
B1         0.000000      0.000000      0.000000     -0.000061      0.000000
A2         0.000000      0.000000      0.000000      0.000000      0.000000
B1         0.000000      0.000000      0.000000      0.000000     -0.000095
A2         0.000000      0.000000      0.000000     -0.000036      0.000094
D3         0.000000      0.000000      0.000000      0.000022      0.000172
B1         0.000000      0.000000      0.000000      0.000000      0.000095
A2         0.000000      0.000000      0.000000     -0.000036     -0.000094
D4         0.000000      0.000000      0.000000     -0.000022      0.000172
---------------------------------------------------------------------------
             56.540       835.022       835.109       835.399       926.096
---------------------------------------------------------------------------
B1         0.000000     -0.047815      0.076527      0.000000     -0.000140
B1         0.000000     -0.047815     -0.076527      0.000000     -0.000140
A2         0.000000      0.752769      0.000000      0.000000     -0.769487
B1         0.000000      0.047770      0.000000     -0.043110     -0.000127
A2         0.000093     -0.000235     -0.599481      0.337433      0.384992
D3        -0.000057      0.460544      0.367105      0.619904      0.236064
B1         0.000000      0.047770      0.000000      0.043110     -0.000127
A2        -0.000093     -0.000235     -0.599481     -0.337433      0.384992
D4        -0.000057     -0.460544     -0.367105      0.619904     -0.236064
---------------------------------------------------------------------------
            926.217      2160.982      2160.982      2161.046      2167.238
---------------------------------------------------------------------------
B1         0.000000     -0.502162      0.707085      0.000000      0.497773
B1         0.000000     -0.502162     -0.707085      0.000000      0.497773
A2         0.000000     -0.006586      0.000000      0.000000     -0.000063
B1         0.000000      0.497790      0.000000     -0.707038      0.502217
A2        -0.603023      0.000004      0.004703     -0.004711      0.000020
D3         0.369274     -0.004026     -0.002880     -0.008655     -0.000001
B1         0.000000      0.497790      0.000000      0.707038      0.502217
A2         0.603023      0.000004      0.004703      0.004711      0.000020
D4         0.369274      0.004026      0.002880     -0.008655      0.000001
---------------------------------------------------------------------------
 
  ----------------------------------------------------------------
                    Dipole Moment Function
                   (Normal Coordinate Basis)
  ----------------------------------------------------------------
    Mode     Symmetry    d(Mu(x))/dQ   d(Mu(y))/dQ   d(Mu(z))/dQ
  ----------------------------------------------------------------
     Q7          A2        0.000000      0.000000      0.352658
     Q8                    0.000000      0.352731      0.000000
     Q9                    0.352744      0.000000      0.000000
     Q10         A1        0.000000      0.000000      0.000216
     Q11         A2        0.000000      0.000000      0.000000
     Q12          E        0.000000      0.000000      0.365997
     Q13          E        0.000000      0.365925      0.000000
     Q14                   0.365911      0.000000      0.000000
     Q15         A1        0.000000      0.000000      0.001620
  ----------------------------------------------------------------
---------------------------------------------------------------------------
------------------------------------------------------------
        Parameter                (MHz)                 (CM-1)
------------------------------------------------------------
 
           R6                -.601019E-01           -.200478E-05
           R5                0.280309E+00           0.935011E-05
           SI                            -.998796E+00
 
  A-reduced centrifugal distortion parameters 
 
           DJ                0.889875E+00           0.296830E-04
           DK                -.279327E+00           -.931734E-05
           DJK               0.239125E+00           0.797637E-05
           DELJ              0.101008E+01           0.336926E-04
           DELK              0.321693E+00           0.107305E-04
           DELJK             -.482098E+00           -.160810E-04
           delJ              0.801363E-01           0.267306E-05
           delK              -.800737E+00           -.267097E-04
 
  S-reduced centrifugal distortion parameters 
 
           DJ                0.609227E+00           0.203216E-04
           DK                -.168256E+01           -.561243E-04
           DJK               0.192301E+01           0.641447E-04
           D1                -.801363E-01           -.267306E-05
           D2                -.200426E+00           -.668548E-05
------------------------------------------------------------
   Vibrational frequencies after rotational projection  of 
   Cartesian force constants: 
            1               0.0000i
            2               0.0000i
            3               0.0000i
            4               0.0000 
            5               0.0000 
            6               0.0000 
            7             835.0224 
            8             835.1089 
            9             835.3988 
           10             926.0961 
           11             926.2166 
           12            2160.9821 
           13            2160.9823 
           14            2161.0458 
           15            2167.2385 
  Zero-point vibrational energy:   18.5960 kcal/mol =   77.8057 kJ/mol.
                0.00 seconds walltime passed
 --executable xjoda finished with status            0
