ne                                                                      
Freq      RB3LYP                                                      3-21G               
Number of atoms                            I                3
Info1-9                                    I   N=           9
          15          13           0           0           0         101
           6          18        -502
Charge                                     I                0
Multiplicity                               I                1
Number of electrons                        I               10
Number of alpha electrons                  I                5
Number of beta electrons                   I                5
Number of basis functions                  I               13
Number of independent functions            I               13
Number of point charges in /Mol/           I                0
Number of translation vectors              I                0
Atomic numbers                             I   N=           3
           8           1           1
Nuclear charges                            R   N=           3
  8.00000000E+00  1.00000000E+00  1.00000000E+00
Current cartesian coordinates              R   N=           9
  1.23259516E-32  0.00000000E+00  2.32129381E-01  1.47911420E-31  1.48328187E+00
 -9.28517523E-01 -1.81643641E-16 -1.48328187E+00 -9.28517523E-01
Force Field                                I                0
Int Atom Types                             I   N=           3
           0           0           0
MM charges                                 R   N=           3
  0.00000000E+00  0.00000000E+00  0.00000000E+00
Integer atomic weights                     I   N=           3
          16           1           1
Real atomic weights                        R   N=           3
  1.59949146E+01  1.00782504E+00  1.00782504E+00
Atom fragment info                         I   N=           3
           0           0           0
Atom residue num                           I   N=           3
           0           0           0
Nuclear spins                              I   N=           3
           0           1           1
Nuclear ZEff                               R   N=           3
 -5.60000000E+00 -1.00000000E+00 -1.00000000E+00
Nuclear ZNuc                               R   N=           3
  8.00000000E+00  1.00000000E+00  1.00000000E+00
Nuclear QMom                               R   N=           3
  0.00000000E+00  0.00000000E+00  0.00000000E+00
Nuclear GFac                               R   N=           3
  0.00000000E+00  2.79284600E+00  2.79284600E+00
MicOpt                                     I   N=           3
          -1          -1          -1
Number of contracted shells                I                7
Number of primitive shells                 I               12
Pure/Cartesian d shells                    I                1
Pure/Cartesian f shells                    I                0
Highest angular momentum                   I                1
Largest degree of contraction              I                3
Shell types                                I   N=           7
           0          -1          -1           0           0           0
           0
Number of primitives per shell             I   N=           7
           3           2           1           2           1           2
           1
Shell to atom map                          I   N=           7
           1           1           1           2           2           3
           3
Primitive exponents                        R   N=          12
  3.22037000E+02  4.84308000E+01  1.04206000E+01  7.40294000E+00  1.57620000E+00
  3.73684000E-01  5.44717800E+00  8.24547240E-01  1.83191580E-01  5.44717800E+00
  8.24547240E-01  1.83191580E-01
Contraction coefficients                   R   N=          12
  5.92393934E-02  3.51499961E-01  7.07657921E-01 -4.04453583E-01  1.22156176E+00
  1.00000000E+00  1.56284979E-01  9.04690877E-01  1.00000000E+00  1.56284979E-01
  9.04690877E-01  1.00000000E+00
P(S=P) Contraction coefficients            R   N=          12
  0.00000000E+00  0.00000000E+00  0.00000000E+00  2.44586107E-01  8.53955373E-01
  1.00000000E+00  0.00000000E+00  0.00000000E+00  0.00000000E+00  0.00000000E+00
  0.00000000E+00  0.00000000E+00
Coordinates of each shell                  R   N=          21
  6.43773493E-33  6.44288458E-18  2.32129381E-01  6.43773493E-33  6.44288458E-18
  2.32129381E-01  6.43773493E-33  6.44288458E-18  2.32129381E-01  7.31314425E-32
  1.48328187E+00 -9.28517523E-01  7.31314425E-32  1.48328187E+00 -9.28517523E-01
 -1.81643641E-16 -1.48328187E+00 -9.28517523E-01 -1.81643641E-16 -1.48328187E+00
 -9.28517523E-01
Constraint Structure                       R   N=           9
  6.43773493E-33  6.44288458E-18  2.32129381E-01  7.31314425E-32  1.48328187E+00
 -9.28517523E-01 -1.81643641E-16 -1.48328187E+00 -9.28517523E-01
Num ILSW                                   I              100
ILSW                                       I   N=         100
           0           1           0           0           2           0
           0           0           0           0         402          -1
           0           0           0           0           2           0
           0           0           0           0           1           0
           1           0           0           0           0           0
           0           0      100000           0          -1           0
           0           0           0           0           0           0
           0           0           0           1           0           0
           0           0           1           0           0           0
           0           0           4          41           0           0
           0           0           5           0           0           0
           0           0           0           3           0           0
           0           0           0           0           0           0
           0           0           0           0           0           0
           0           0           0           0           0           0
           0           0           0           0           0           0
           0           0           0           0
Num RLSW                                   I               41
RLSW                                       R   N=          41
  8.00000000E-01  7.20000000E-01  1.00000000E+00  8.10000000E-01  2.00000000E-01
  0.00000000E+00  0.00000000E+00  1.00000000E+00  0.00000000E+00  0.00000000E+00
  0.00000000E+00  0.00000000E+00  1.00000000E+00  0.00000000E+00  0.00000000E+00
  0.00000000E+00  0.00000000E+00  1.00000000E+00  0.00000000E+00  0.00000000E+00
  0.00000000E+00  0.00000000E+00  1.00000000E+00  0.00000000E+00  0.00000000E+00
  0.00000000E+00  0.00000000E+00  1.00000000E+00  0.00000000E+00  0.00000000E+00
  0.00000000E+00  0.00000000E+00  1.00000000E+00  0.00000000E+00  0.00000000E+00
  0.00000000E+00  0.00000000E+00  0.00000000E+00  1.00000000E+00  1.00000000E+00
  0.00000000E+00
MxBond                                     I                2
NBond                                      I   N=           3
           2           1           1
IBond                                      I   N=           6
           2           3           1           0           1           0
RBond                                      R   N=           6
  1.00000000E+00  1.00000000E+00  1.00000000E+00  0.00000000E+00  1.00000000E+00
  0.00000000E+00
Virial Ratio                               R      2.007091063683646E+00
SCF Energy                                 R     -7.597396536257398E+01
Total Energy                               R     -7.597396536257398E+01
RMS Force                                  R      1.862340118801374E-05
RMS Density                                R      8.101511946795563E-09
External E-field                           R   N=          35
  0.00000000E+00  0.00000000E+00  0.00000000E+00  0.00000000E+00  0.00000000E+00
  0.00000000E+00  0.00000000E+00  0.00000000E+00  0.00000000E+00  0.00000000E+00
  0.00000000E+00  0.00000000E+00  0.00000000E+00  0.00000000E+00  0.00000000E+00
  0.00000000E+00  0.00000000E+00  0.00000000E+00  0.00000000E+00  0.00000000E+00
  0.00000000E+00  0.00000000E+00  0.00000000E+00  0.00000000E+00  0.00000000E+00
  0.00000000E+00  0.00000000E+00  0.00000000E+00  0.00000000E+00  0.00000000E+00
  0.00000000E+00  0.00000000E+00  0.00000000E+00  0.00000000E+00  0.00000000E+00
IOpCl                                      I                0
IROHF                                      I                0
Alpha Orbital Energies                     R   N=          13
 -1.90032545E+01 -9.75844727E-01 -4.92432544E-01 -3.26981676E-01 -2.56868365E-01
  8.72452798E-02  1.76653408E-01  9.13009010E-01  9.75095660E-01  1.43853855E+00
  1.52778748E+00  1.64432586E+00  2.73035891E+00
Alpha MO coefficients                      R   N=         169
  9.82189871E-01  1.02311490E-01  0.00000000E+00  0.00000000E+00 -3.52762455E-03
 -4.12136310E-02  0.00000000E+00  0.00000000E+00  7.02071678E-03  2.70474203E-03
  7.08175680E-03  2.70474203E-03  7.08175680E-03 -2.26346919E-01  2.16755548E-01
  0.00000000E+00  0.00000000E+00 -1.13989519E-01  6.85405886E-01  0.00000000E+00
  0.00000000E+00 -1.12501265E-01  1.19337129E-01  3.02894803E-02  1.19337129E-01
  3.02894803E-02  0.00000000E+00  0.00000000E+00  0.00000000E+00  4.07190583E-01
  0.00000000E+00  0.00000000E+00  0.00000000E+00  3.46153418E-01  0.00000000E+00
  2.31151588E-01  2.11508262E-01 -2.31151588E-01 -2.11508262E-01 -1.05031441E-01
  8.98227539E-02  0.00000000E+00  0.00000000E+00  4.36563549E-01  4.76517186E-01
  0.00000000E+00  0.00000000E+00  4.72200128E-01 -1.33662229E-01 -1.36926252E-01
 -1.33662229E-01 -1.36926252E-01  0.00000000E+00  0.00000000E+00  5.30539962E-01
  0.00000000E+00  0.00000000E+00  0.00000000E+00  6.23387045E-01  0.00000000E+00
  0.00000000E+00  0.00000000E+00  0.00000000E+00  0.00000000E+00  0.00000000E+00
 -1.08422529E-01  5.78145122E-02  0.00000000E+00  0.00000000E+00 -2.69175436E-01
  9.46934271E-01  0.00000000E+00  0.00000000E+00 -4.73960296E-01 -9.46996214E-02
 -7.99605779E-01 -9.46996214E-02 -7.99605779E-01  0.00000000E+00  0.00000000E+00
  0.00000000E+00 -3.72800924E-01  0.00000000E+00  0.00000000E+00  0.00000000E+00
 -7.29742066E-01  0.00000000E+00  9.97205715E-02  1.04038349E+00 -9.97205715E-02
 -1.04038349E+00  0.00000000E+00  0.00000000E+00  0.00000000E+00 -2.10940406E-01
  0.00000000E+00  0.00000000E+00  0.00000000E+00 -2.40169040E-01  0.00000000E+00
  9.37880235E-01 -8.31239473E-01 -9.37880235E-01  8.31239473E-01  5.30523550E-02
 -9.90001331E-02  0.00000000E+00  0.00000000E+00  3.19196419E-01  5.79816986E-02
  0.00000000E+00  0.00000000E+00  1.44608283E-01  9.36763651E-01 -5.76651658E-01
  9.36763651E-01 -5.76651658E-01  0.00000000E+00  0.00000000E+00  1.02453619E+00
  0.00000000E+00  0.00000000E+00  0.00000000E+00 -9.70842751E-01  0.00000000E+00
  0.00000000E+00  0.00000000E+00  0.00000000E+00  0.00000000E+00  0.00000000E+00
  5.08435393E-02 -1.46304773E-01  0.00000000E+00  0.00000000E+00 -9.84428330E-01
 -1.55976633E-01  0.00000000E+00  0.00000000E+00  1.16928857E+00  3.19797112E-01
  5.83939331E-02  3.19797112E-01  5.83939331E-02  0.00000000E+00  0.00000000E+00
  0.00000000E+00 -1.03463496E+00  0.00000000E+00  0.00000000E+00  0.00000000E+00
  1.42315593E+00  0.00000000E+00 -2.02013290E-01 -4.54986527E-01  2.02013290E-01
  4.54986527E-01  9.00893420E-02 -1.62669900E+00  0.00000000E+00  0.00000000E+00
  1.55723783E-01  1.92741551E+00  0.00000000E+00  0.00000000E+00 -4.82503012E-01
 -2.78934235E-01 -3.39539139E-01 -2.78934235E-01 -3.39539139E-01
Total SCF Density                          R   N=          91
  2.05392295E+00  8.39862913E-02  1.31037472E-01  0.00000000E+00  0.00000000E+00
  5.62945303E-01 -1.30542906E-18  7.85180979E-19  2.31111593E-32  3.31608342E-01
 -4.70330385E-02  2.82891261E-02  1.25474358E-32  2.09774506E-18  4.07187573E-01
 -4.91336816E-01  3.74301973E-01  8.01472406E-33  7.21902166E-18  2.60092666E-01
  1.39709684E+00  0.00000000E+00  0.00000000E+00  6.61463478E-01  1.69481835E-32
  4.68807094E-32  0.00000000E+00  7.77222815E-01 -9.56782889E-19  1.04068657E-18
  2.00296714E-32  2.81900825E-01  4.32954505E-18  8.19417302E-18  9.24446373E-33
  2.39644378E-01 -3.44717365E-02  3.74946852E-02  1.34935004E-32  4.32954505E-18
  4.37889125E-01  2.95226196E-01  1.45248266E-32  6.43133308E-18  4.71357572E-01
 -2.06325696E-02  2.82756031E-02  7.70371978E-33  1.88245500E-01 -1.43929561E-01
  3.59810987E-02  6.93334780E-33  1.60027825E-01 -1.53043821E-01  1.71090629E-01
  2.89625216E-02 -1.00182701E-02  6.93334780E-33  1.72248345E-01 -1.26509351E-01
 -8.95579783E-02  6.16297582E-33  1.46428616E-01 -1.36028959E-01  1.41652306E-01
  1.28904295E-01 -2.06325696E-02  2.82756031E-02 -7.70371978E-33 -1.88245500E-01
 -1.43929561E-01  3.59810987E-02 -6.93334780E-33 -1.60027825E-01 -1.53043821E-01
 -4.26335984E-02 -5.39095775E-02  1.71090629E-01  2.89625216E-02 -1.00182701E-02
 -6.93334780E-33 -1.72248345E-01 -1.26509351E-01 -8.95579783E-02 -6.16297582E-33
 -1.46428616E-01 -1.36028959E-01 -5.39095775E-02 -5.00386854E-02  1.41652306E-01
  1.28904295E-01
Mulliken Charges                           R   N=           3
 -6.38259829E-01  3.19129915E-01  3.19129915E-01
ONIOM Charges                              I   N=          16
           0           0           0           0           0           0
           0           0           0           0           0           0
           0           0           0           0
ONIOM Multiplicities                       I   N=          16
           1           0           0           0           0           0
           0           0           0           0           0           0
           0           0           0           0
Atom Layers                                I   N=           3
           1           1           1
Atom Modifiers                             I   N=           3
           0           0           0
Force Field                                I                0
Int Atom Modified Types                    I   N=           3
           0           0           0
Link Atoms                                 I   N=           3
           0           0           0
Atom Modified MM Charges                   R   N=           3
  0.00000000E+00  0.00000000E+00  0.00000000E+00
Link Distances                             R   N=          12
  0.00000000E+00  0.00000000E+00  0.00000000E+00  0.00000000E+00  0.00000000E+00
  0.00000000E+00  0.00000000E+00  0.00000000E+00  0.00000000E+00  0.00000000E+00
  0.00000000E+00  0.00000000E+00
Cartesian Gradient                         R   N=           9
  7.96393275E-16 -3.22485094E-15  4.55658578E-05  3.64512063E-17 -1.88527780E-06
 -2.27829289E-05 -8.32844481E-16  1.88527780E-06 -2.27829289E-05
Cartesian Force Constants                  R   N=          45
  1.33147738E-04  3.13640742E-13  5.54683858E-01  8.19753918E-12  8.82444118E-12
  3.63627614E-01 -6.65738681E-05  2.68190679E-12 -4.69499565E-12  4.54997035E-05
  1.53527701E-12 -2.77341929E-01  1.42641691E-01 -1.67899948E-12  3.13359786E-01
 -5.24961883E-12  2.16989387E-01 -1.81813807E-01  3.13417011E-12 -1.79815539E-01
  1.75772589E-01 -6.65738690E-05 -1.46119883E-14  1.28377858E-12  2.10741649E-05
  3.87781807E-13  2.75375797E-13  4.54997035E-05 -1.93303221E-12 -2.77341929E-01
 -1.42641691E-01  3.87802364E-13 -3.60178570E-02 -3.71738478E-02 -1.67976504E-12
  3.13359786E-01  4.63833774E-13 -2.16989387E-01 -1.81813807E-01 -2.75350930E-13
  3.71738478E-02  6.04121796E-03 -3.13473201E-12  1.79815539E-01  1.75772589E-01
Dipole Moment                              R   N=           3
 -5.65278287E-17 -3.33066907E-16 -8.80929239E-01
Dipole Derivatives                         R   N=          27
 -7.59009698E-01  1.27715865E-11 -2.79178434E-11  5.51301252E-12 -2.23888052E-01
 -1.56537755E-10  4.25889252E-12 -1.09570422E-10 -1.34851907E-01  3.79504849E-01
 -3.11565889E-11  2.40568061E-11  4.88390050E-13  1.11944026E-01  1.44615863E-01
 -1.10719320E-12  2.09362948E-01  6.74259534E-02  3.79504849E-01 -3.10547802E-11
 -2.74172227E-11  1.56622987E-13  1.11944026E-01 -1.44615863E-01  6.57540652E-13
 -2.09362948E-01  6.74259534E-02
Polarizability                             R   N=           6
  8.00372400E-01  4.43518369E-16  7.51899556E+00  3.13646820E-16  8.88178420E-16
  4.50430881E+00
Polarizability Derivatives                 R   N=          54
  4.94097471E-12 -3.51523255E-11 -2.76511862E-10  3.19109934E+00  1.04873492E-10
 -1.36493419E-10  3.09814396E-11 -2.57883616E-11 -1.21118893E-09  2.53946727E-11
  4.58244696E+00 -5.17257792E-10 -4.78667395E-01  7.05191360E-11  5.35430040E+00
 -2.11960607E-11 -2.38880027E-10  6.88026029E+00 -5.31106860E-12  2.26481116E+00
  2.21528700E-10 -1.59554967E+00 -9.46271545E-11  7.10368759E-11 -3.03641796E-01
  6.79343322E-12  5.60382115E+00  4.68938197E-13 -2.29122348E+00  6.42383900E-01
  2.39333697E-01 -3.81027524E-11 -2.67715020E+00  2.21862890E-11  2.80906795E+00
 -3.44013015E+00  4.23919370E-12 -2.26481116E+00 -2.13560749E-10 -1.59554967E+00
 -1.04012302E-10 -9.66813848E-11  3.03641796E-01  5.33614263E-12 -5.60382115E+00
  5.38583451E-12 -2.29122348E+00 -6.42383900E-01  2.39333697E-01 -2.68605299E-11
 -2.67715020E+00 -1.90667075E-11 -2.80906795E+00 -3.44013015E+00
HyperPolarizability                        R   N=          10
 -3.93114487E-11 -2.56940025E-11  6.84460769E-11 -5.65254510E-11 -1.22147671E+00
 -3.23360274E-11 -2.28869114E+01 -5.04296565E-11  5.78426196E-11 -1.59450581E+01
QEq coupling tensors                       R   N=          18
  2.19571850E+00  4.87129641E-17 -1.81168554E+00  3.63230059E-17  3.14193116E-14
 -3.84032951E-01  2.66963541E-01 -2.55179205E-18 -2.39653529E-01  2.41756042E-19
  3.21731728E-01 -2.73100123E-02  2.66963541E-01 -8.52126491E-17 -2.39653529E-01
 -6.43684076E-17 -3.21731728E-01 -2.73100123E-02
Number of Normal Modes                     I                3
Vib-NDFDPol                                I                0
Vib-NumROA                                 I                0
Vib-NDim                                   I                3
Vib-NDim0                                  I                3
Vib-AtMass                                 R   N=           3
  1.59949146E+01  1.00782504E+00  1.00782504E+00
Vib-E2                                     R   N=          42
  1.69283671E+03  3.41505227E+03  3.55514327E+03  1.08958417E+00  1.03880877E+00
  1.08127281E+00  1.83967492E+00  7.13806476E+00  8.05192390E+00  3.66564174E+01
  1.37074400E+01  1.58789796E+00  1.39162279E+01  9.06090948E+01  4.29178950E+01
  4.75358111E-01  2.07395608E-01  7.50000000E-01  6.44396919E-01  3.43542094E-01
  8.57142857E-01  0.00000000E+00  0.00000000E+00  0.00000000E+00  0.00000000E+00
  0.00000000E+00  0.00000000E+00  1.00000000E+02  1.00000000E+02  1.00000000E+02
  0.00000000E+00  0.00000000E+00  0.00000000E+00  0.00000000E+00  0.00000000E+00
  0.00000000E+00  0.00000000E+00  0.00000000E+00  0.00000000E+00  0.00000000E+00
  0.00000000E+00  0.00000000E+00
Vib-Modes                                  R   N=          27
  5.77962369E-18  9.57567359E-15  7.38600297E-02 -6.98725632E-17 -3.92112163E-01
 -5.86106133E-01 -2.18542586E-17  3.92112163E-01 -5.86106133E-01  3.55793755E-18
 -9.24437610E-13  4.54682497E-02  8.95019952E-18  6.07276367E-01 -3.60807058E-01
 -6.54172502E-17 -6.07276367E-01 -3.60807058E-01 -4.28644413E-18 -7.00052571E-02
 -6.14945594E-13 -1.32479328E-28  5.55517114E-01 -4.34684216E-01  6.80289787E-17
  5.55517114E-01  4.34684216E-01
