XeF6                                                                    
Freq      RB3LYP                                                      LANL2DZ             
Number of atoms                            I                7
Info1-9                                    I   N=           9
          16          15        1002           0           0         100
           6          18        -502
Charge                                     I                0
Multiplicity                               I                1
Number of electrons                        I               62
Number of alpha electrons                  I               31
Number of beta electrons                   I               31
Number of basis functions                  I               62
Number of independent functions            I               62
Number of point charges in /Mol/           I                0
Number of translation vectors              I                0
Atomic numbers                             I   N=           7
          54           9           9           9           9           9
           9
Nuclear charges                            R   N=           7
  8.00000000E+00  9.00000000E+00  9.00000000E+00  9.00000000E+00  9.00000000E+00
  9.00000000E+00  9.00000000E+00
Current cartesian coordinates              R   N=          21
  0.00000000E+00  0.00000000E+00  0.00000000E+00  0.00000000E+00 -5.27113481E-31
  3.90542765E+00  1.97215226E-31  3.90542765E+00 -7.17391728E-16  3.94430453E-31
 -4.78261152E-16 -3.90542765E+00 -5.91645679E-31 -3.90542765E+00  2.39130576E-16
 -3.90542765E+00 -1.18329136E-30 -7.17391728E-16  3.90542765E+00  3.94430453E-31
  2.39130576E-16
Force Field                                I                0
Int Atom Types                             I   N=           7
           0           0           0           0           0           0
           0
MM charges                                 R   N=           7
  0.00000000E+00  0.00000000E+00  0.00000000E+00  0.00000000E+00  0.00000000E+00
  0.00000000E+00  0.00000000E+00
Integer atomic weights                     I   N=           7
         132          19          19          19          19          19
          19
Real atomic weights                        R   N=           7
  1.31904200E+02  1.89984032E+01  1.89984032E+01  1.89984032E+01  1.89984032E+01
  1.89984032E+01  1.89984032E+01
Atom fragment info                         I   N=           7
           0           0           0           0           0           0
           0
Atom residue num                           I   N=           7
           0           0           0           0           0           0
           0
Nuclear spins                              I   N=           7
           0           1           1           1           1           1
           1
Nuclear ZEff                               R   N=           7
 -5.94000000E+03 -6.75000000E+00 -6.75000000E+00 -6.75000000E+00 -6.75000000E+00
 -6.75000000E+00 -6.75000000E+00
Nuclear QMom                               R   N=           7
  0.00000000E+00  0.00000000E+00  0.00000000E+00  0.00000000E+00  0.00000000E+00
  0.00000000E+00  0.00000000E+00
Nuclear GFac                               R   N=           7
  0.00000000E+00  2.62886700E+00  2.62886700E+00  2.62886700E+00  2.62886700E+00
  2.62886700E+00  2.62886700E+00
MicOpt                                     I   N=           7
          -1          -1          -1          -1          -1          -1
          -1
Number of contracted shells                I               34
Number of primitive shells                 I               96
Pure/Cartesian d shells                    I                0
Pure/Cartesian f shells                    I                0
Highest angular momentum                   I                1
Largest degree of contraction              I                7
Shell types                                I   N=          34
           0           0           1           1           0           0
           0           1           1           0           0           0
           1           1           0           0           0           1
           1           0           0           0           1           1
           0           0           0           1           1           0
           0           0           1           1
Number of primitives per shell             I   N=          34
           2           1           2           1           7           2
           1           4           1           7           2           1
           4           1           7           2           1           4
           1           7           2           1           4           1
           7           2           1           4           1           7
           2           1           4           1
Shell to atom map                          I   N=          34
           1           1           1           1           2           2
           2           2           2           3           3           3
           3           3           4           4           4           4
           4           5           5           5           5           5
           6           6           6           6           6           7
           7           7           7           7
Primitive exponents                        R   N=          96
  7.64600000E-01  5.32200000E-01  1.49100000E-01  1.21100000E+00  3.80800000E-01
  1.25900000E-01  9.99500000E+03  1.50600000E+03  3.50300000E+02  1.04100000E+02
  3.48400000E+01  1.22200000E+01  4.36900000E+00  1.22200000E+01  1.20800000E+00
  3.63400000E-01  4.43600000E+01  1.00800000E+01  2.99600000E+00  9.38300000E-01
  2.73300000E-01  9.99500000E+03  1.50600000E+03  3.50300000E+02  1.04100000E+02
  3.48400000E+01  1.22200000E+01  4.36900000E+00  1.22200000E+01  1.20800000E+00
  3.63400000E-01  4.43600000E+01  1.00800000E+01  2.99600000E+00  9.38300000E-01
  2.73300000E-01  9.99500000E+03  1.50600000E+03  3.50300000E+02  1.04100000E+02
  3.48400000E+01  1.22200000E+01  4.36900000E+00  1.22200000E+01  1.20800000E+00
  3.63400000E-01  4.43600000E+01  1.00800000E+01  2.99600000E+00  9.38300000E-01
  2.73300000E-01  9.99500000E+03  1.50600000E+03  3.50300000E+02  1.04100000E+02
  3.48400000E+01  1.22200000E+01  4.36900000E+00  1.22200000E+01  1.20800000E+00
  3.63400000E-01  4.43600000E+01  1.00800000E+01  2.99600000E+00  9.38300000E-01
  2.73300000E-01  9.99500000E+03  1.50600000E+03  3.50300000E+02  1.04100000E+02
  3.48400000E+01  1.22200000E+01  4.36900000E+00  1.22200000E+01  1.20800000E+00
  3.63400000E-01  4.43600000E+01  1.00800000E+01  2.99600000E+00  9.38300000E-01
  2.73300000E-01  9.99500000E+03  1.50600000E+03  3.50300000E+02  1.04100000E+02
  3.48400000E+01  1.22200000E+01  4.36900000E+00  1.22200000E+01  1.20800000E+00
  3.63400000E-01  4.43600000E+01  1.00800000E+01  2.99600000E+00  9.38300000E-01
  2.73300000E-01
Contraction coefficients                   R   N=          96
 -3.65431730E+00  4.16749201E+00  1.00000000E+00 -2.61692414E-01  1.15703556E+00
  1.00000000E+00  1.16599858E-03  8.87598917E-03  4.23799483E-02  1.42928826E-01
  3.55371566E-01  4.62084436E-01  1.40847828E-01 -1.48451921E-01  1.05526944E+00
  1.00000000E+00  2.08760024E-02  1.30107015E-01  3.96166046E-01  6.20404071E-01
  1.00000000E+00  1.16599858E-03  8.87598917E-03  4.23799483E-02  1.42928826E-01
  3.55371566E-01  4.62084436E-01  1.40847828E-01 -1.48451921E-01  1.05526944E+00
  1.00000000E+00  2.08760024E-02  1.30107015E-01  3.96166046E-01  6.20404071E-01
  1.00000000E+00  1.16599858E-03  8.87598917E-03  4.23799483E-02  1.42928826E-01
  3.55371566E-01  4.62084436E-01  1.40847828E-01 -1.48451921E-01  1.05526944E+00
  1.00000000E+00  2.08760024E-02  1.30107015E-01  3.96166046E-01  6.20404071E-01
  1.00000000E+00  1.16599858E-03  8.87598917E-03  4.23799483E-02  1.42928826E-01
  3.55371566E-01  4.62084436E-01  1.40847828E-01 -1.48451921E-01  1.05526944E+00
  1.00000000E+00  2.08760024E-02  1.30107015E-01  3.96166046E-01  6.20404071E-01
  1.00000000E+00  1.16599858E-03  8.87598917E-03  4.23799483E-02  1.42928826E-01
  3.55371566E-01  4.62084436E-01  1.40847828E-01 -1.48451921E-01  1.05526944E+00
  1.00000000E+00  2.08760024E-02  1.30107015E-01  3.96166046E-01  6.20404071E-01
  1.00000000E+00  1.16599858E-03  8.87598917E-03  4.23799483E-02  1.42928826E-01
  3.55371566E-01  4.62084436E-01  1.40847828E-01 -1.48451921E-01  1.05526944E+00
  1.00000000E+00  2.08760024E-02  1.30107015E-01  3.96166046E-01  6.20404071E-01
  1.00000000E+00
Coordinates of each shell                  R   N=         102
  0.00000000E+00  0.00000000E+00  0.00000000E+00  0.00000000E+00  0.00000000E+00
  0.00000000E+00  0.00000000E+00  0.00000000E+00  0.00000000E+00  0.00000000E+00
  0.00000000E+00  0.00000000E+00  0.00000000E+00 -5.27113481E-31  3.90542765E+00
  0.00000000E+00 -5.27113481E-31  3.90542765E+00  0.00000000E+00 -5.27113481E-31
  3.90542765E+00  0.00000000E+00 -5.27113481E-31  3.90542765E+00  0.00000000E+00
 -5.27113481E-31  3.90542765E+00  0.00000000E+00  3.90542765E+00 -7.17391728E-16
  0.00000000E+00  3.90542765E+00 -7.17391728E-16  0.00000000E+00  3.90542765E+00
 -7.17391728E-16  0.00000000E+00  3.90542765E+00 -7.17391728E-16  0.00000000E+00
  3.90542765E+00 -7.17391728E-16  0.00000000E+00 -4.78261152E-16 -3.90542765E+00
  0.00000000E+00 -4.78261152E-16 -3.90542765E+00  0.00000000E+00 -4.78261152E-16
 -3.90542765E+00  0.00000000E+00 -4.78261152E-16 -3.90542765E+00  0.00000000E+00
 -4.78261152E-16 -3.90542765E+00 -3.94430453E-31 -3.90542765E+00  2.39130576E-16
 -3.94430453E-31 -3.90542765E+00  2.39130576E-16 -3.94430453E-31 -3.90542765E+00
  2.39130576E-16 -3.94430453E-31 -3.90542765E+00  2.39130576E-16 -3.94430453E-31
 -3.90542765E+00  2.39130576E-16 -3.90542765E+00 -9.86076132E-31 -7.17391728E-16
 -3.90542765E+00 -9.86076132E-31 -7.17391728E-16 -3.90542765E+00 -9.86076132E-31
 -7.17391728E-16 -3.90542765E+00 -9.86076132E-31 -7.17391728E-16 -3.90542765E+00
 -9.86076132E-31 -7.17391728E-16  3.90542765E+00  1.97215226E-31  2.39130576E-16
  3.90542765E+00  1.97215226E-31  2.39130576E-16  3.90542765E+00  1.97215226E-31
  2.39130576E-16  3.90542765E+00  1.97215226E-31  2.39130576E-16  3.90542765E+00
  1.97215226E-31  2.39130576E-16
Constraint Structure                       R   N=          21
  0.00000000E+00  0.00000000E+00  0.00000000E+00  0.00000000E+00 -5.27113481E-31
  3.90542765E+00  0.00000000E+00  3.90542765E+00 -7.17391728E-16  0.00000000E+00
 -4.78261152E-16 -3.90542765E+00 -3.94430453E-31 -3.90542765E+00  2.39130576E-16
 -3.90542765E+00 -9.86076132E-31 -7.17391728E-16  3.90542765E+00  1.97215226E-31
  2.39130576E-16
Num ILSW                                   I              100
ILSW                                       I   N=         100
           0           0           0           0           2           0
           0           0           0           0         402          -1
           0           0           0           0           0           0
           0           0           1           0           1           0
           1           0           0           0           0           0
           0           0      100000           0          -1           0
           0           0           0           0           0           0
           0           0           0           1           0           0
           0           0           1           0           0           0
           0           0           4          40           0           0
           0           0           5           0           0           0
           0           0           0           0           0           0
           0           0           0           0           0           0
           0           0           0           0           0           0
           0           0           0           0           0           0
           0           0           0           0           0           0
           0           0           0           0
Num RLSW                                   I               40
RLSW                                       R   N=          40
  8.00000000E-01  7.20000000E-01  1.00000000E+00  8.10000000E-01  2.00000000E-01
  0.00000000E+00  0.00000000E+00  1.00000000E+00  0.00000000E+00  0.00000000E+00
  0.00000000E+00  0.00000000E+00  1.00000000E+00  0.00000000E+00  0.00000000E+00
  0.00000000E+00  0.00000000E+00  1.00000000E+00  0.00000000E+00  0.00000000E+00
  0.00000000E+00  0.00000000E+00  1.00000000E+00  0.00000000E+00  0.00000000E+00
  0.00000000E+00  0.00000000E+00  1.00000000E+00  0.00000000E+00  0.00000000E+00
  0.00000000E+00  0.00000000E+00  1.00000000E+00  0.00000000E+00  0.00000000E+00
  0.00000000E+00  0.00000000E+00  0.00000000E+00  1.00000000E+00  1.00000000E+00
ECP-MxAtEC                                 I            20000
ECP-MaxLECP                                I               10
ECP-MaxAtL                                 I           180000
ECP-MxTECP                                 I           900000
ECP-LenNCZ                                 I               21
ECP-KFirst                                 I   N=          70
           1           0           0           0           0           0
           0           7           0           0           0           0
           0           0          12           0           0           0
           0           0           0          17           0           0
           0           0           0           0           0           0
           0           0           0           0           0           0
           0           0           0           0           0           0
           0           0           0           0           0           0
           0           0           0           0           0           0
           0           0           0           0           0           0
           0           0           0           0           0           0
           0           0           0           0
ECP-KLast                                  I   N=          70
           6           0           0           0           0           0
           0          11           0           0           0           0
           0           0          16           0           0           0
           0           0           0          21           0           0
           0           0           0           0           0           0
           0           0           0           0           0           0
           0           0           0           0           0           0
           0           0           0           0           0           0
           0           0           0           0           0           0
           0           0           0           0           0           0
           0           0           0           0           0           0
           0           0           0           0
ECP-LMax                                   I   N=           7
           3           0           0           0           0           0
           0
ECP-LPSkip                                 I   N=           7
           0           1           1           1           1           1
           1
ECP-RNFroz                                 R   N=           7
  4.60000000E+01  0.00000000E+00  0.00000000E+00  0.00000000E+00  0.00000000E+00
  0.00000000E+00  0.00000000E+00
ECP-NLP                                    I   N=          21
           0           1           2           2           2           2
           0           1           2           2           2           0
           1           2           2           2           0           1
           2           2           2
ECP-CLP1                                   R   N=          21
 -7.76099000E-02 -3.24332953E+01 -1.51085335E+02 -4.64977626E+01 -1.78080990E+01
 -1.64811630E+00  2.91703080E+00  5.20620644E+01  2.93286567E+02  1.22861037E+02
  4.16867277E+01  2.09685150E+00  3.00220424E+01  1.72875764E+02  6.77609841E+01
  2.98970913E+01  7.04149350E+00  3.33391744E+01  2.49289308E+02  8.93576166E+01
  1.16206324E+01
ECP-CLP2                                   R   N=          21
  0.00000000E+00  0.00000000E+00  0.00000000E+00  0.00000000E+00  0.00000000E+00
  0.00000000E+00  0.00000000E+00  0.00000000E+00  0.00000000E+00  0.00000000E+00
  0.00000000E+00  0.00000000E+00  0.00000000E+00  0.00000000E+00  0.00000000E+00
  0.00000000E+00  0.00000000E+00  0.00000000E+00  0.00000000E+00  0.00000000E+00
  0.00000000E+00
ECP-ZLP                                    R   N=          21
  4.42513831E+02  1.06000553E+02  3.26123743E+01  9.47396670E+00  3.11471950E+00
  9.19447200E-01  1.48740072E+02  7.47687436E+01  3.41548413E+01  9.68996750E+00
  2.10659470E+00  8.14951570E+00  1.13923564E+02  3.51266431E+01  8.14495790E+00
  1.71871380E+00  4.94518384E+01  3.89480918E+01  2.00161598E+01  5.06149040E+00
  1.06729630E+00
MxBond                                     I                6
NBond                                      I   N=           7
           6           1           1           1           1           1
           1
IBond                                      I   N=          42
           2           3           4           5           6           7
           1           0           0           0           0           0
           1           0           0           0           0           0
           1           0           0           0           0           0
           1           0           0           0           0           0
           1           0           0           0           0           0
           1           0           0           0           0           0
RBond                                      R   N=          42
  1.00000000E+00  1.00000000E+00  1.00000000E+00  1.00000000E+00  1.00000000E+00
  1.00000000E+00  1.00000000E+00  0.00000000E+00  0.00000000E+00  0.00000000E+00
  0.00000000E+00  0.00000000E+00  1.00000000E+00  0.00000000E+00  0.00000000E+00
  0.00000000E+00  0.00000000E+00  0.00000000E+00  1.00000000E+00  0.00000000E+00
  0.00000000E+00  0.00000000E+00  0.00000000E+00  0.00000000E+00  1.00000000E+00
  0.00000000E+00  0.00000000E+00  0.00000000E+00  0.00000000E+00  0.00000000E+00
  1.00000000E+00  0.00000000E+00  0.00000000E+00  0.00000000E+00  0.00000000E+00
  0.00000000E+00  1.00000000E+00  0.00000000E+00  0.00000000E+00  0.00000000E+00
  0.00000000E+00  0.00000000E+00
Virial Ratio                               R      2.023101384231780E+00
SCF Energy                                 R     -6.140274835835810E+02
Total Energy                               R     -6.140274835835810E+02
RMS Force                                  R      1.556593227859732E-07
RMS Density                                R      9.689294111304343E-10
External E-field                           R   N=          35
  0.00000000E+00  0.00000000E+00  0.00000000E+00  0.00000000E+00  0.00000000E+00
  0.00000000E+00  0.00000000E+00  0.00000000E+00  0.00000000E+00  0.00000000E+00
  0.00000000E+00  0.00000000E+00  0.00000000E+00  0.00000000E+00  0.00000000E+00
  0.00000000E+00  0.00000000E+00  0.00000000E+00  0.00000000E+00  0.00000000E+00
  0.00000000E+00  0.00000000E+00  0.00000000E+00  0.00000000E+00  0.00000000E+00
  0.00000000E+00  0.00000000E+00  0.00000000E+00  0.00000000E+00  0.00000000E+00
  0.00000000E+00  0.00000000E+00  0.00000000E+00  0.00000000E+00  0.00000000E+00
IOpCl                                      I                0
IROHF                                      I                0
Alpha Orbital Energies                     R   N=          62
 -2.47822167E+01 -2.47822167E+01 -2.47822167E+01 -2.47822125E+01 -2.47822125E+01
 -2.47822117E+01 -1.30097863E+00 -1.23977507E+00 -1.23977507E+00 -1.23977507E+00
 -1.22406528E+00 -1.22406528E+00 -1.01480044E+00 -6.70057677E-01 -6.70057677E-01
 -6.70057677E-01 -4.96815042E-01 -4.96815042E-01 -4.96516419E-01 -4.96516419E-01
 -4.96516419E-01 -4.80847754E-01 -4.80847754E-01 -4.80847754E-01 -4.77518182E-01
 -4.77518182E-01 -4.77518182E-01 -4.66147611E-01 -4.66147611E-01 -4.66147611E-01
 -4.17305302E-01 -2.71527691E-01 -2.71527691E-01 -2.71527691E-01  3.51714228E-01
  3.51714228E-01  3.51714228E-01  5.77995739E-01  5.77995739E-01  5.77995739E-01
  7.58726703E-01  7.58726703E-01  7.58726703E-01  7.74767071E-01  7.74767071E-01
  7.95859138E-01  8.16385114E-01  8.16385114E-01  8.16385114E-01  8.92390785E-01
  8.92390785E-01  8.92390785E-01  9.93026568E-01  9.93026568E-01  9.93026568E-01
  1.21770292E+00  1.21770292E+00  1.30277688E+00  1.82086132E+00  1.82086132E+00
  1.82086132E+00  1.56162104E+01
Alpha MO coefficients                      R   N=        3844
  0.00000000E+00  0.00000000E+00  1.96109978E-04  0.00000000E+00  0.00000000E+00
 -1.36292147E-03  0.00000000E+00  0.00000000E+00  0.00000000E+00  0.00000000E+00
  0.00000000E+00 -3.64762882E-05  0.00000000E+00  0.00000000E+00  1.84451671E-04
  0.00000000E+00  0.00000000E+00  0.00000000E+00  0.00000000E+00  0.00000000E+00
 -3.64762882E-05  0.00000000E+00  0.00000000E+00  1.84451671E-04  0.00000000E+00
  0.00000000E+00  0.00000000E+00  0.00000000E+00  0.00000000E+00 -3.64762882E-05
  0.00000000E+00  0.00000000E+00  1.84451671E-04  0.00000000E+00  0.00000000E+00
  0.00000000E+00  0.00000000E+00  0.00000000E+00 -3.64762882E-05  0.00000000E+00
  0.00000000E+00  1.84451671E-04  0.00000000E+00  0.00000000E+00  7.06463060E-01
  3.23848347E-03 -1.69796520E-03  5.13293105E-04  0.00000000E+00  0.00000000E+00
 -5.91917824E-04  0.00000000E+00  0.00000000E+00 -7.06463060E-01 -3.23848347E-03
  1.69796520E-03  5.13293105E-04  0.00000000E+00  0.00000000E+00 -5.91917824E-04
  0.00000000E+00  0.00000000E+00  0.00000000E+00  0.00000000E+00  0.00000000E+00
 -1.96109978E-04  0.00000000E+00  0.00000000E+00  1.36292147E-03  0.00000000E+00
  0.00000000E+00  0.00000000E+00  0.00000000E+00  0.00000000E+00  3.64762882E-05
  0.00000000E+00  0.00000000E+00 -1.84451671E-04  0.00000000E+00  7.06463060E-01
  3.23848347E-03 -1.69796520E-03  0.00000000E+00 -5.13293105E-04  0.00000000E+00
  0.00000000E+00  5.91917824E-04  0.00000000E+00  0.00000000E+00  0.00000000E+00
  0.00000000E+00  0.00000000E+00  3.64762882E-05  0.00000000E+00  0.00000000E+00
 -1.84451671E-04  0.00000000E+00 -7.06463060E-01 -3.23848347E-03  1.69796520E-03
  0.00000000E+00 -5.13293105E-04  0.00000000E+00  0.00000000E+00  5.91917824E-04
  0.00000000E+00  0.00000000E+00  0.00000000E+00  0.00000000E+00  0.00000000E+00
  3.64762882E-05  0.00000000E+00  0.00000000E+00 -1.84451671E-04  0.00000000E+00
  0.00000000E+00  0.00000000E+00  0.00000000E+00  0.00000000E+00  3.64762882E-05
  0.00000000E+00  0.00000000E+00 -1.84451671E-04  0.00000000E+00  0.00000000E+00
  0.00000000E+00  0.00000000E+00  0.00000000E+00 -1.96109978E-04  0.00000000E+00
  0.00000000E+00  1.36292147E-03  7.06463060E-01  3.23848347E-03 -1.69796520E-03
  0.00000000E+00  0.00000000E+00 -5.13293105E-04  0.00000000E+00  0.00000000E+00
  5.91917824E-04  0.00000000E+00  0.00000000E+00  0.00000000E+00  0.00000000E+00
  0.00000000E+00  3.64762882E-05  0.00000000E+00  0.00000000E+00 -1.84451671E-04
 -7.06463060E-01 -3.23848347E-03  1.69796520E-03  0.00000000E+00  0.00000000E+00
 -5.13293105E-04  0.00000000E+00  0.00000000E+00  5.91917824E-04  0.00000000E+00
  0.00000000E+00  0.00000000E+00  0.00000000E+00  0.00000000E+00  3.64762882E-05
  0.00000000E+00  0.00000000E+00 -1.84451671E-04  0.00000000E+00  0.00000000E+00
  0.00000000E+00  0.00000000E+00  0.00000000E+00  3.64762882E-05  0.00000000E+00
  0.00000000E+00 -1.84451671E-04  0.00000000E+00  0.00000000E+00  0.00000000E+00
  0.00000000E+00  0.00000000E+00  3.64762882E-05  0.00000000E+00  0.00000000E+00
 -1.84451671E-04 -3.12145831E-13  5.67284540E-12  0.00000000E+00  0.00000000E+00
  0.00000000E+00  0.00000000E+00  0.00000000E+00  0.00000000E+00 -2.39475822E-01
 -9.93687198E-04  3.28366838E-04  0.00000000E+00  0.00000000E+00  1.58584822E-04
  0.00000000E+00  0.00000000E+00 -7.87376875E-05 -3.34721273E-01 -1.38890115E-03
  4.58966443E-04  0.00000000E+00  2.21657924E-04  0.00000000E+00  0.00000000E+00
 -1.10053611E-04  0.00000000E+00 -2.39475822E-01 -9.93687198E-04  3.28366838E-04
  0.00000000E+00  0.00000000E+00 -1.58584822E-04  0.00000000E+00  0.00000000E+00
  7.87376875E-05 -3.34721273E-01 -1.38890115E-03  4.58966443E-04  0.00000000E+00
 -2.21657924E-04  0.00000000E+00  0.00000000E+00  1.10053611E-04  0.00000000E+00
  5.74197105E-01  2.38258839E-03 -7.87333297E-04  3.80242752E-04  0.00000000E+00
  0.00000000E+00 -1.88791304E-04  0.00000000E+00  0.00000000E+00  5.74197105E-01
  2.38258839E-03 -7.87333297E-04 -3.80242752E-04  0.00000000E+00  0.00000000E+00
  1.88791304E-04  0.00000000E+00  0.00000000E+00  1.17918646E-12 -2.14362829E-11
  0.00000000E+00  0.00000000E+00  0.00000000E+00  0.00000000E+00  0.00000000E+00
  0.00000000E+00  5.24764258E-01  2.17747045E-03 -7.19551470E-04  0.00000000E+00
  0.00000000E+00 -3.47507509E-04  0.00000000E+00  0.00000000E+00  1.72538186E-04
 -4.69774295E-01 -1.94929367E-03  6.44149794E-04  0.00000000E+00  3.11092253E-04
  0.00000000E+00  0.00000000E+00 -1.54457942E-04  0.00000000E+00  5.24764258E-01
  2.17747045E-03 -7.19551470E-04  0.00000000E+00  0.00000000E+00  3.47507509E-04
  0.00000000E+00  0.00000000E+00 -1.72538186E-04 -4.69774295E-01 -1.94929367E-03
  6.44149794E-04  0.00000000E+00 -3.11092253E-04  0.00000000E+00  0.00000000E+00
  1.54457942E-04  0.00000000E+00 -5.49899988E-02 -2.28176931E-04  7.54017373E-05
 -3.64152804E-05  0.00000000E+00  0.00000000E+00  1.80802636E-05  0.00000000E+00
  0.00000000E+00 -5.49899988E-02 -2.28176931E-04  7.54017373E-05  3.64152804E-05
  0.00000000E+00  0.00000000E+00 -1.80802636E-05  0.00000000E+00  0.00000000E+00
 -4.00492719E-05  7.28048876E-04  0.00000000E+00  0.00000000E+00  0.00000000E+00
  0.00000000E+00  0.00000000E+00  0.00000000E+00  4.07876991E-01  1.74967795E-03
 -6.90018717E-04  0.00000000E+00  0.00000000E+00 -2.76023692E-04  0.00000000E+00
  0.00000000E+00  2.22018979E-04  4.07876963E-01  1.74967783E-03 -6.90018678E-04
  0.00000000E+00 -2.76023673E-04  0.00000000E+00  0.00000000E+00  2.22018969E-04
  0.00000000E+00  4.07876991E-01  1.74967795E-03 -6.90018717E-04  0.00000000E+00
  0.00000000E+00  2.76023692E-04  0.00000000E+00  0.00000000E+00 -2.22018979E-04
  4.07876963E-01  1.74967783E-03 -6.90018678E-04  0.00000000E+00  2.76023673E-04
  0.00000000E+00  0.00000000E+00 -2.22018969E-04  0.00000000E+00  4.07876968E-01
  1.74967785E-03 -6.90018685E-04  2.76023676E-04  0.00000000E+00  0.00000000E+00
 -2.22018971E-04  0.00000000E+00  0.00000000E+00  4.07876968E-01  1.74967785E-03
 -6.90018685E-04 -2.76023676E-04  0.00000000E+00  0.00000000E+00  2.22018971E-04
  0.00000000E+00  0.00000000E+00  2.09019280E-01  3.00190142E-01  0.00000000E+00
  0.00000000E+00  0.00000000E+00  0.00000000E+00  0.00000000E+00  0.00000000E+00
 -8.21342183E-02  1.81415189E-01  1.49782834E-01  0.00000000E+00  0.00000000E+00
 -4.47239036E-02  0.00000000E+00  0.00000000E+00 -8.08414907E-03 -8.21342183E-02
  1.81415189E-01  1.49782834E-01  0.00000000E+00 -4.47239036E-02  0.00000000E+00
  0.00000000E+00 -8.08414907E-03  0.00000000E+00 -8.21342183E-02  1.81415189E-01
  1.49782834E-01  0.00000000E+00  0.00000000E+00  4.47239036E-02  0.00000000E+00
  0.00000000E+00  8.08414907E-03 -8.21342183E-02  1.81415189E-01  1.49782834E-01
  0.00000000E+00  4.47239036E-02  0.00000000E+00  0.00000000E+00  8.08414907E-03
  0.00000000E+00 -8.21342183E-02  1.81415189E-01  1.49782834E-01  4.47239036E-02
  0.00000000E+00  0.00000000E+00  8.08414907E-03  0.00000000E+00  0.00000000E+00
 -8.21342183E-02  1.81415189E-01  1.49782834E-01 -4.47239036E-02  0.00000000E+00
  0.00000000E+00 -8.08414907E-03  0.00000000E+00  0.00000000E+00  0.00000000E+00
  0.00000000E+00 -1.00199145E-01  0.00000000E+00  0.00000000E+00 -3.44739771E-02
  0.00000000E+00  0.00000000E+00  0.00000000E+00  0.00000000E+00  0.00000000E+00
 -3.17037855E-03  0.00000000E+00  0.00000000E+00  1.86038420E-04  0.00000000E+00
  0.00000000E+00  0.00000000E+00  0.00000000E+00  0.00000000E+00 -3.17037855E-03
  0.00000000E+00  0.00000000E+00  1.86038420E-04  0.00000000E+00  0.00000000E+00
  0.00000000E+00  0.00000000E+00  0.00000000E+00 -3.17037855E-03  0.00000000E+00
  0.00000000E+00  1.86038420E-04  0.00000000E+00  0.00000000E+00  0.00000000E+00
  0.00000000E+00  0.00000000E+00 -3.17037855E-03  0.00000000E+00  0.00000000E+00
  1.86038420E-04  0.00000000E+00  0.00000000E+00 -1.73920795E-01  3.77624412E-01
  3.55895299E-01  6.24911205E-02  0.00000000E+00  0.00000000E+00  3.00802142E-02
  0.00000000E+00  0.00000000E+00  1.73920795E-01 -3.77624412E-01 -3.55895299E-01
  6.24911205E-02  0.00000000E+00  0.00000000E+00  3.00802142E-02  0.00000000E+00
  0.00000000E+00  0.00000000E+00  0.00000000E+00  0.00000000E+00  1.00199145E-01
  0.00000000E+00  0.00000000E+00  3.44739771E-02  0.00000000E+00  0.00000000E+00
  0.00000000E+00  0.00000000E+00  0.00000000E+00  3.17037855E-03  0.00000000E+00
  0.00000000E+00 -1.86038420E-04  0.00000000E+00 -1.73920795E-01  3.77624412E-01
  3.55895299E-01  0.00000000E+00 -6.24911205E-02  0.00000000E+00  0.00000000E+00
 -3.00802142E-02  0.00000000E+00  0.00000000E+00  0.00000000E+00  0.00000000E+00
  0.00000000E+00  3.17037855E-03  0.00000000E+00  0.00000000E+00 -1.86038420E-04
  0.00000000E+00  1.73920795E-01 -3.77624412E-01 -3.55895299E-01  0.00000000E+00
 -6.24911205E-02  0.00000000E+00  0.00000000E+00 -3.00802142E-02  0.00000000E+00
  0.00000000E+00  0.00000000E+00  0.00000000E+00  0.00000000E+00  3.17037855E-03
  0.00000000E+00  0.00000000E+00 -1.86038420E-04  0.00000000E+00  0.00000000E+00
  0.00000000E+00  0.00000000E+00  0.00000000E+00  3.17037855E-03  0.00000000E+00
  0.00000000E+00 -1.86038420E-04  0.00000000E+00  0.00000000E+00  0.00000000E+00
  0.00000000E+00  0.00000000E+00  1.00199145E-01  0.00000000E+00  0.00000000E+00
  3.44739771E-02 -1.73920795E-01  3.77624412E-01  3.55895299E-01  0.00000000E+00
  0.00000000E+00 -6.24911205E-02  0.00000000E+00  0.00000000E+00 -3.00802142E-02