    -----------------------------------------------------------------------
          PSI4: An Open-Source Ab Initio Electronic Structure Package
                              PSI 4.0.0-beta5 Driver

    J. M. Turney, A. C. Simmonett, R. M. Parrish, E. G. Hohenstein,
    F. A. Evangelista, J. T. Fermann, B. J. Mintz, L. A. Burns, J. J. Wilke,
    M. L. Abrams, N. J. Russ, M. L. Leininger, C. L. Janssen, E. T. Seidl,
    W. D. Allen, H. F. Schaefer, R. A. King, E. F. Valeev, C. D. Sherrill,
    and T. D. Crawford, WIREs Comput. Mol. Sci., (2011) (doi: 10.1002/wcms.93)

                         Additional Contributions by
    A. E. DePrince, M. Saitow, U. Bozkaya, A. Yu. Sokolov
    -----------------------------------------------------------------------

    Process ID:   4772
    PSI4DATADIR: /home/wzou/work/PSI40b5/share/psi/

    Using LocalCommunicator (Number of processes = 1)

    Memory level set to 256.000 MB

  ==> Input File <==

--------------------------------------------------------------------------
#! Frequencies for H2O

memory 250 mb

molecule h2o {
  O 
  H 1 0.9463
  H 1 0.9463 2 104.575
}

set basis cc-pVDZ
set print 3

optimize('b3lyp')

frequencies('b3lyp')

--------------------------------------------------------------------------

  Memory set to 250.000 MiB by Python script.

  No DF_BASIS_SCF auxiliary basis selected, defaulting to cc-pvdz-jkfit


*** tstart() called on qcband
*** at Sat Apr 11 15:48:44 2015

	There are an even number of electrons - assuming singlet.
	Specify the multiplicity with the MULTP option in the
	input if this is incorrect


         ---------------------------------------------------------
                                   SCF
            by Justin Turney, Rob Parrish, and Andy Simmonett
                              RKS Reference
                        1 Threads,    250 MiB Core
         ---------------------------------------------------------

  ==> Geometry <==

    Molecular point group: c2v
    Full point group: C2v

    Geometry (in Angstrom), charge = 0, multiplicity = 1:

       Center              X                  Y                   Z       
    ------------   -----------------  -----------------  -----------------
           O          0.000000000000     0.000000000000    -0.064782078048
           H          0.000000000000    -0.748608561284     0.514069294907
           H          0.000000000000     0.748608561284     0.514069294907

  Running in c2v symmetry.

  Nuclear repulsion =    9.300746177729851

  Charge       = 0
  Multiplicity = 1
  Electrons    = 10
  Nalpha       = 5
  Nbeta        = 5

  ==> Algorithm <==

  SCF Algorithm Type is DF.
  DIIS enabled.
  MOM disabled.
  Fractional occupation disabled.
  Guess Type is CORE.
  Energy threshold   = 1.00e-08
  Density threshold  = 1.00e-08
  Integral threshold = 0.00e+00

  ==> Primary Basis <==

  -AO BASIS SET INFORMATION:
    Name                   = CC-PVDZ
    Total number of shells = 12
    Number of primitives   = 32
    Number of AO           = 25
    Number of SO           = 24
    Maximum AM             = 2
    Spherical Harmonics    = TRUE

  -Contraction Scheme:
    Atom   Type   All Primitives // Shells:
   ------ ------ --------------------------
       1     O     17s 4p 1d // 3s 2p 1d 
       2     H     4s 1p // 2s 1p 
       3     H     4s 1p // 2s 1p 

  ==> AO Basis Functions <==

    [ CC-PVDZ ]
    spherical
    ****
    O   1
    S   8 1.00
                     11720.00000000           0.56970172
                      1759.00000000           1.05835210
                       400.80000000           1.77628106
                       113.70000000           2.59941189
                        37.03000000           3.02684600
                        13.27000000           2.22239433
                         5.02500000           0.64779543
                         1.01300000           0.01111870
    S   8 1.00
                     11720.00000000          -0.25243426
                      1759.00000000          -0.48049109
                       400.80000000          -0.78629966
                       113.70000000          -1.25416990
                        37.03000000          -1.49121792
                        13.27000000          -1.61083178
                         5.02500000          -0.54979838
                         1.01300000           0.78828221
    S   1 1.00
                         0.30230000           0.29056192
    P   3 1.00
                        17.70000000           3.24361935
                         3.85400000           2.56727965
                         1.04600000           1.11766932
    P   1 1.00
                         0.27530000           0.28424828
    D   1 1.00
                         1.18500000           2.21521850
    ****
    H   2
    S   3 1.00
                        13.01000000           0.16354842
                         1.96200000           0.27741754
                         0.44460000           0.31574931
    S   1 1.00
                         0.12200000           0.14712279
    P   1 1.00
                         0.72700000           0.95688138
    ****

  ==> DFT Potential <==

   => B3LYP Composite Functional <= 

    B3LYP Hybrid-GGA Exchange-Correlation Functional

    P.J. Stephens et. al., J. Phys. Chem., 98, 11623-11627, 1994

    Points   =           5000
    Deriv    =              1
    GGA      =           TRUE
    Meta     =          FALSE

    X_LRC        =          FALSE
    X_Hybrid     =           TRUE
    X_Alpha      =   2.000000E-01
    X_Omega      =   0.000000E+00
    C_LRC        =          FALSE
    C_Hybrid     =          FALSE
    C_SCS_Hybrid =          FALSE
    C_Alpha      =   0.000000E+00
    C_SS_Alpha   =   0.000000E+00
    C_OS_Alpha   =   0.000000E+00

   => Exchange Functionals <=

    0.8000  B3_X
    0.2000    HF 

   => Correlation Functionals <=

    0.1900 VWN3RPA_C
    0.8100 LYP_C
    0.0000 DF-MP2 

   => B3_X Functional <=

    Becke88 GGA Exchange (B3LYP weighting)

    P.J. Stephens et. al., J. Phys. Chem., 98, 11623-11627, 1994

    GGA   =           TRUE
    Meta  =          FALSE
    LRC   =          FALSE
    Alpha =   1.000000E+00
    Omega =   0.000000E+00

    > Parameters <

          B88_a =   9.0000000000000002E-01
          B88_d =   4.1999999999999997E-03

   => VWN3RPA_C Functional <=

    VWN3 (RPA) LSDA Correlation

    S.H. Vosko, L. Wilk, and M. Nusair, Can. J. Phys., 58, 1200-1211, 1980

    GGA   =          FALSE
    Meta  =          FALSE
    LRC   =          FALSE
    Alpha =   1.900000E-01
    Omega =   0.000000E+00

    > Parameters <

          EcF_1 =   1.5545349999999999E-02
          EcF_2 =  -7.4329400000000001E-01
          EcF_3 =   2.0123100000000001E+01
          EcF_4 =   1.0157800000000000E+02
          EcP_1 =   3.1090699999999999E-02
          EcP_2 =  -4.0928599999999998E-01
          EcP_3 =   1.3071999999999999E+01
          EcP_4 =   4.2719799999999999E+01
              c =   6.2035049089939986E-01
         two_13 =   1.2599210498948732E+00

   => LYP_C Functional <=

    LYP Correlation

    B. Miehlich et. al., Chem. Phys. Lett., 157(3), 200-206 (1989)

    GGA   =           TRUE
    Meta  =          FALSE
    LRC   =          FALSE
    Alpha =   8.100000E-01
    Omega =   0.000000E+00

    > Parameters <

              A =   4.9180000000000001E-02
              B =   1.3200000000000001E-01
              C =   2.5330000000000003E-01
          CFext =   3.6462398978764774E+01
             Dd =   3.4899999999999998E-01

   => Molecular Quadrature <=

    Radial Scheme    =       TREUTLER
    Pruning Scheme   =           FLAT
    Nuclear Scheme   =       TREUTLER

    BS radius alpha  =              1
    Pruning alpha    =              1
    Radial Points    =             75
    Spherical Points =            302
    Total Points     =          66277
    Total Blocks     =            113
    Max Points       =            999
    Max Functions    =             24

  ==> Pre-Iterations <==

   -------------------------------------------------------
    Irrep   Nso     Nmo     Nalpha   Nbeta   Ndocc  Nsocc
   -------------------------------------------------------
     A1        11      11       0       0       0       0
     A2         2       2       0       0       0       0
     B1         4       4       0       0       0       0
     B2         7       7       0       0       0       0
   -------------------------------------------------------
    Total      24      24       5       5       5       0
   -------------------------------------------------------

 OEINTS: Wrapper to libmints.
   by Justin Turney

   Calculation information:
      Number of atoms:                   3
      Number of AO shells:              12
      Number of SO shells:               9
      Number of primitives:             32
      Number of atomic orbitals:        25
      Number of basis functions:        24

      Number of irreps:                  4
      Number of functions per irrep: [  11    2    4    7 ]

      Overlap, kinetic, potential, dipole, and quadrupole integrals
        stored in file 35.

  ==> Integral Setup <==

  ==> DFJK: Density-Fitted J/K Matrices <==

    J tasked:                  Yes
    K tasked:                  Yes
    wK tasked:                  No
    OpenMP threads:              1
    Integrals threads:           1
    Memory (MB):               178
    Algorithm:                Core
    Integral Cache:           NONE
    Schwarz Cutoff:          1E-12
    Fitting Condition:       1E-12

   => Auxiliary Basis Set <=

  -AO BASIS SET INFORMATION:
    Name                   = cc-pvdz-jkfit
    Total number of shells = 42
    Number of primitives   = 42
    Number of AO           = 131
    Number of SO           = 116
    Maximum AM             = 3
    Spherical Harmonics    = TRUE

  -Contraction Scheme:
    Atom   Type   All Primitives // Shells:
   ------ ------ --------------------------
       1     O     10s 7p 5d 2f // 10s 7p 5d 2f 
       2     H     4s 3p 2d // 4s 3p 2d 
       3     H     4s 3p 2d // 4s 3p 2d 

  ==> AO Basis Functions <==

    [ cc-pvdz-jkfit ]
    spherical
    ****
    O   1
    S   1 1.00
                      1517.86675060         173.31467137
    S   1 1.00
                       489.67952008          74.18977396
    S   1 1.00
                       176.72118665          34.54431272
    S   1 1.00
                        63.79223314          16.08740319
    S   1 1.00
                        25.36649913           8.05574096
    S   1 1.00
                         9.91354912           3.98182312
    S   1 1.00
                         4.46453066           2.18898079
    S   1 1.00
                         1.80177437           1.10837162
    S   1 1.00
                         0.80789711           0.60733335
    S   1 1.00
                         0.33864327           0.31638576
    P   1 1.00
                       120.16030921         567.07615295
    P   1 1.00
                        34.40962247         118.79275995
    P   1 1.00
                        12.58114861          33.77461859
    P   1 1.00
                         5.06638242          10.83459166
    P   1 1.00
                         2.03469271           3.46388627
    P   1 1.00
                         0.86092967           1.18208765
    P   1 1.00
                         0.36681357           0.40690856
    D   1 1.00
                        19.04306281         285.72540432
    D   1 1.00
                         5.80603811          35.74367890
    D   1 1.00
                         2.18918416           6.48490288
    D   1 1.00
                         0.87794614           1.31062436
    D   1 1.00
                         0.35623647           0.27036572
    F   1 1.00
                         2.49391479          11.50636308
    F   1 1.00
                         0.82491479           0.95471754
    ****
    H   2
    S   1 1.00
                         9.53024933           3.86579028
    S   1 1.00
                         1.91745062           1.16132355
    S   1 1.00
                         0.68424049           0.53618748
    S   1 1.00
                         0.28413256           0.27736448
    P   1 1.00
                         2.91332320           5.42532703
    P   1 1.00
                         1.26212054           1.90684824
    P   1 1.00
                         0.50199776           0.60230617
    D   1 1.00
                         2.31353291           7.14318502
    D   1 1.00
                         0.71290724           0.91036856
    ****

  Minimum eigenvalue in the overlap matrix is 3.3420439372E-02.
  Using Symmetric Orthogonalization.
  SCF Guess: Core (One-Electron) Hamiltonian.

  ==> Iterations <==

                           Total Energy        Delta E     RMS |[F,P]|

	Occupation by irrep:
	         A1    A2    B1    B2 
	DOCC [     3,    0,    0,    2 ]

   @DF-RKS iter   1:   -69.20542703032615   -6.92054e+01   2.27847e-01 
DIIS coefficients:  0.464  0.536 
	Occupation by irrep:
	         A1    A2    B1    B2 
	DOCC [     3,    0,    1,    1 ]

   @DF-RKS iter   2:   -67.85775919542873    1.34767e+00   2.04840e-01 DIIS
DIIS coefficients:  -0.106  0.122  0.984 
	Occupation by irrep:
	         A1    A2    B1    B2 
	DOCC [     3,    0,    1,    1 ]

   @DF-RKS iter   3:   -76.14798406336823   -8.29022e+00   5.80295e-02 DIIS
DIIS coefficients:  -0.049  0.017  -0.207  1.238 
	Occupation by irrep:
	         A1    A2    B1    B2 
	DOCC [     3,    0,    1,    1 ]

   @DF-RKS iter   4:   -76.38329386859314   -2.35310e-01   2.23734e-02 DIIS
DIIS coefficients:  -0.005  -0.004  -0.151  0.124  1.037 
	Occupation by irrep:
	         A1    A2    B1    B2 
	DOCC [     3,    0,    1,    1 ]

   @DF-RKS iter   5:   -76.41658278876287   -3.32889e-02   6.87034e-03 DIIS
DIIS coefficients:  -0.001  -0.000  0.007  -0.009  0.002  1.001 
	Occupation by irrep:
	         A1    A2    B1    B2 
	DOCC [     3,    0,    1,    1 ]

   @DF-RKS iter   6:   -76.41967554451800   -3.09276e-03   2.74112e-04 DIIS
DIIS coefficients:  0.000  0.000  -0.000  -0.005  -0.005  -0.106  1.116 
	Occupation by irrep:
	         A1    A2    B1    B2 
	DOCC [     3,    0,    1,    1 ]

   @DF-RKS iter   7:   -76.41968271513289   -7.17061e-06   1.26576e-04 DIIS
DIIS coefficients:  -0.000  -0.000  -0.000  0.000  0.000  0.006  -0.074  1.068 
	Occupation by irrep:
	         A1    A2    B1    B2 
	DOCC [     3,    0,    1,    1 ]

   @DF-RKS iter   8:   -76.41968371291199   -9.97779e-07   7.90681e-06 DIIS
DIIS coefficients:  -0.000  -0.000  -0.000  0.000  0.000  0.001  -0.009  0.036  0.972 
	Occupation by irrep:
	         A1    A2    B1    B2 
	DOCC [     3,    0,    1,    1 ]

   @DF-RKS iter   9:   -76.41968371698877   -4.07678e-09   1.50065e-07 DIIS
DIIS coefficients:  0.000  0.000  0.000  -0.000  -0.000  -0.000  0.001  -0.006  -0.073  1.078 
	Occupation by irrep:
	         A1    A2    B1    B2 
	DOCC [     3,    0,    1,    1 ]

   @DF-RKS iter  10:   -76.41968371699180   -3.02691e-12   3.28235e-08 DIIS
DIIS coefficients:  1.082  0.000  -0.000  0.000  0.000  0.000  -0.000  0.000  0.002  -0.084 
	Occupation by irrep:
	         A1    A2    B1    B2 
	DOCC [     3,    0,    1,    1 ]

   @DF-RKS iter  11:   -76.41968371699187   -7.10543e-14   6.53481e-10 DIIS

  ==> Post-Iterations <==

	Orbital Energies (a.u.)
	-----------------------

	Doubly Occupied:                                                      

	   1A1   -19.120245     2A1    -1.000067     1B2    -0.518375  
	   3A1    -0.365358     1B1    -0.288863  

	Virtual:                                                              

	   4A1     0.054680     2B2     0.130778     3B2     0.568931  
	   5A1     0.624049     6A1     0.901197     2B1     0.919190  
	   4B2     0.995304     7A1     1.203438     1A2     1.235738  
	   3B1     1.429507     8A1     1.591072     5B2     1.682812  
	   6B2     2.141891     9A1     2.180928     4B1     2.931465  
	   2A2     2.978250    10A1     3.148319    11A1     3.479681  
	   7B2     3.749069  

	Final Occupation by Irrep:
	         A1    A2    B1    B2 
	DOCC [     3,    0,    1,    1 ]

  Energy converged.

  @DF-RKS Final Energy:   -76.41968371699187

   => Energetics <=

    Nuclear Repulsion Energy =              9.3007461777298506
    One-Electron Energy =                -123.4098156611841404
    Two-Electron Energy =                  45.2759639716391220
    DFT Exchange-Correlation Energy =      -7.5865782051766955
    Empirical Dispersion Energy =           0.0000000000000000
    Total Energy =                        -76.4196837169918695



Properties will be evaluated at   0.000000,   0.000000,   0.000000 Bohr
  ==> Properties <==


Properties computed using the SCF density density matrix
  Nuclear Dipole Moment: (a.u.)
     X:     0.0000      Y:     0.0000      Z:     0.9635

  Electronic Dipole Moment: (a.u.)
     X:     0.0000      Y:     0.0000      Z:    -0.2143

  Dipole Moment: (a.u.)
     X:     0.0000      Y:     0.0000      Z:     0.7493     Total:     0.7493

  Dipole Moment: (Debye)
     X:     0.0000      Y:     0.0000      Z:     1.9045     Total:     1.9045

  Quadrupole Moment: (Debye Ang)
    XX:    -6.9524     YY:    -4.2936     ZZ:    -5.7176
    XY:     0.0000     XZ:     0.0000     YZ:     0.0000

  Traceless Quadrupole Moment: (Debye Ang)
    XX:    -1.2979     YY:     1.3609     ZZ:    -0.0630
    XY:     0.0000     XZ:     0.0000     YZ:     0.0000

  Mulliken Charges: (a.u.)
   Center  Symbol    Alpha    Beta     Spin     Total
       1     O     4.12157  4.12157  0.00000 -0.24315
       2     H     0.43921  0.43921  0.00000  0.12157
       3     H     0.43921  0.43921  0.00000  0.12157

   Total alpha =  5.00000, Total beta =  5.00000, Total charge =  0.00000



  Lowdin Charges [a.u.]:

   Center  Symbol    Alpha    Beta     Spin     Total
       1     O     4.03357  4.03357  0.00000 -0.06714
       2     H     0.48322  0.48322  0.00000  0.03357
       3     H     0.48322  0.48322  0.00000  0.03357

  Total alpha =  5.00000, Total beta =  5.00000, Total charge =  0.00000


  Mayer Bond Indices:

  Irrep: 1 Size: 3 x 3

                 1            2            3

    1    0.0000000    1.0387978    1.0387978
    2    1.0387978    0.0000000    0.0073954
    3    1.0387978    0.0073954    0.0000000



  Atomic Valences: 

 #  #
 Irrep: 1
      1:  2.0775955
      2:  1.0461931
      3:  1.0461931



  Wiberg Bond Indices using Orthogonal Lowdin Orbitals:

  Irrep: 1 Size: 3 x 3

                 1            2            3

    1    0.0000000    1.2044807    1.2044807
    2    1.2044807    0.0000000    0.0701971
    3    1.2044807    0.0701971    0.0000000



  Atomic Valences: 

 #  #
 Irrep: 1
      1:  2.4089614
      2:  1.2746777
      3:  1.2746777


  Saving occupied orbitals to File 180.

*** tstop() called on qcband at Sat Apr 11 15:48:55 2015
Module time:
	user time   =      10.54 seconds =       0.18 minutes
	system time =       0.28 seconds =       0.00 minutes
	total time  =         11 seconds =       0.18 minutes
Total time:
	user time   =      10.54 seconds =       0.18 minutes
	system time =       0.28 seconds =       0.00 minutes
	total time  =         11 seconds =       0.18 minutes

  No DF_BASIS_SCF auxiliary basis selected, defaulting to cc-pvdz-jkfit


*** tstart() called on qcband
*** at Sat Apr 11 15:48:55 2015


         ------------------------------------------------------------
                                   SCF GRAD                          
                          Rob Parrish, Justin Turney,                
                       Andy Simmonett, and Alex Sokolov              
         ------------------------------------------------------------

  ==> Geometry <==

    Molecular point group: c2v
    Full point group: C2v

    Geometry (in Angstrom), charge = 0, multiplicity = 1:

       Center              X                  Y                   Z       
    ------------   -----------------  -----------------  -----------------
           O          0.000000000000     0.000000000000    -0.064782078048
           H          0.000000000000    -0.748608561284     0.514069294907
           H          0.000000000000     0.748608561284     0.514069294907

  Nuclear repulsion =    9.300746177729851

  ==> Basis Set <==

  -AO BASIS SET INFORMATION:
    Name                   = CC-PVDZ
    Total number of shells = 12
    Number of primitives   = 32
    Number of AO           = 25
    Number of SO           = 24
    Maximum AM             = 2
    Spherical Harmonics    = TRUE

  -Contraction Scheme:
    Atom   Type   All Primitives // Shells:
   ------ ------ --------------------------
       1     O     17s 4p 1d // 3s 2p 1d 
       2     H     4s 1p // 2s 1p 
       3     H     4s 1p // 2s 1p 

  ==> AO Basis Functions <==

    [ CC-PVDZ ]
    spherical
    ****
    O   1
    S   8 1.00
                     11720.00000000           0.56970172
                      1759.00000000           1.05835210
                       400.80000000           1.77628106
                       113.70000000           2.59941189
                        37.03000000           3.02684600
                        13.27000000           2.22239433
                         5.02500000           0.64779543
                         1.01300000           0.01111870
    S   8 1.00
                     11720.00000000          -0.25243426
                      1759.00000000          -0.48049109
                       400.80000000          -0.78629966
                       113.70000000          -1.25416990
                        37.03000000          -1.49121792
                        13.27000000          -1.61083178
                         5.02500000          -0.54979838
                         1.01300000           0.78828221
    S   1 1.00
                         0.30230000           0.29056192
    P   3 1.00
                        17.70000000           3.24361935
                         3.85400000           2.56727965
                         1.04600000           1.11766932
    P   1 1.00
                         0.27530000           0.28424828
    D   1 1.00
                         1.18500000           2.21521850
    ****
    H   2
    S   3 1.00
                        13.01000000           0.16354842
                         1.96200000           0.27741754
                         0.44460000           0.31574931
    S   1 1.00
                         0.12200000           0.14712279
    P   1 1.00
                         0.72700000           0.95688138
    ****

  ==> DFJKGrad: Density-Fitted SCF Gradients <==

    Gradient:                    1
    J tasked:                  Yes
    K tasked:                  Yes
    wK tasked:                  No
    OpenMP threads:              1
    Integrals threads:           1
    Memory (MB):               178
    Schwarz Cutoff:          0E+00
    Fitting Condition:       1E-12

   => Auxiliary Basis Set <=

  -AO BASIS SET INFORMATION:
    Name                   = cc-pvdz-jkfit
    Total number of shells = 42
    Number of primitives   = 42
    Number of AO           = 131
    Number of SO           = 116
    Maximum AM             = 3
    Spherical Harmonics    = TRUE

  -Contraction Scheme:
    Atom   Type   All Primitives // Shells:
   ------ ------ --------------------------
       1     O     10s 7p 5d 2f // 10s 7p 5d 2f 
       2     H     4s 3p 2d // 4s 3p 2d 
       3     H     4s 3p 2d // 4s 3p 2d 

  ==> AO Basis Functions <==

    [ cc-pvdz-jkfit ]
    spherical
    ****
    O   1
    S   1 1.00
                      1517.86675060         173.31467137
    S   1 1.00
                       489.67952008          74.18977396
    S   1 1.00
                       176.72118665          34.54431272
    S   1 1.00
                        63.79223314          16.08740319
    S   1 1.00
                        25.36649913           8.05574096
    S   1 1.00
                         9.91354912           3.98182312
    S   1 1.00
                         4.46453066           2.18898079
    S   1 1.00
                         1.80177437           1.10837162
    S   1 1.00
                         0.80789711           0.60733335
    S   1 1.00
                         0.33864327           0.31638576
    P   1 1.00
                       120.16030921         567.07615295
    P   1 1.00
                        34.40962247         118.79275995
    P   1 1.00
                        12.58114861          33.77461859
    P   1 1.00
                         5.06638242          10.83459166
    P   1 1.00
                         2.03469271           3.46388627
    P   1 1.00
                         0.86092967           1.18208765
    P   1 1.00
                         0.36681357           0.40690856
    D   1 1.00
                        19.04306281         285.72540432
    D   1 1.00
                         5.80603811          35.74367890
    D   1 1.00
                         2.18918416           6.48490288
    D   1 1.00
                         0.87794614           1.31062436
    D   1 1.00
                         0.35623647           0.27036572
    F   1 1.00
                         2.49391479          11.50636308
    F   1 1.00
                         0.82491479           0.95471754
    ****
    H   2
    S   1 1.00
                         9.53024933           3.86579028
    S   1 1.00
                         1.91745062           1.16132355
    S   1 1.00
                         0.68424049           0.53618748
    S   1 1.00
                         0.28413256           0.27736448
    P   1 1.00
                         2.91332320           5.42532703
    P   1 1.00
                         1.26212054           1.90684824
    P   1 1.00
                         0.50199776           0.60230617
    D   1 1.00
                         2.31353291           7.14318502
    D   1 1.00
                         0.71290724           0.91036856
    ****

  ==> DFT Potential <==

   => B3LYP Composite Functional <= 

    B3LYP Hybrid-GGA Exchange-Correlation Functional

    P.J. Stephens et. al., J. Phys. Chem., 98, 11623-11627, 1994

    Points   =           5000
    Deriv    =              1
    GGA      =           TRUE
    Meta     =          FALSE

    X_LRC        =          FALSE
    X_Hybrid     =           TRUE
    X_Alpha      =   2.000000E-01
    X_Omega      =   0.000000E+00
    C_LRC        =          FALSE
    C_Hybrid     =          FALSE
    C_SCS_Hybrid =          FALSE
    C_Alpha      =   0.000000E+00
    C_SS_Alpha   =   0.000000E+00
    C_OS_Alpha   =   0.000000E+00

   => Exchange Functionals <=

    0.8000  B3_X
    0.2000    HF 

   => Correlation Functionals <=

    0.1900 VWN3RPA_C
    0.8100 LYP_C
    0.0000 DF-MP2 

   => B3_X Functional <=

    Becke88 GGA Exchange (B3LYP weighting)

    P.J. Stephens et. al., J. Phys. Chem., 98, 11623-11627, 1994

    GGA   =           TRUE
    Meta  =          FALSE
    LRC   =          FALSE
    Alpha =   1.000000E+00
    Omega =   0.000000E+00

    > Parameters <

          B88_a =   9.0000000000000002E-01
          B88_d =   4.1999999999999997E-03

   => VWN3RPA_C Functional <=

    VWN3 (RPA) LSDA Correlation

    S.H. Vosko, L. Wilk, and M. Nusair, Can. J. Phys., 58, 1200-1211, 1980

    GGA   =          FALSE
    Meta  =          FALSE
    LRC   =          FALSE
    Alpha =   1.900000E-01
    Omega =   0.000000E+00

    > Parameters <

          EcF_1 =   1.5545349999999999E-02
          EcF_2 =  -7.4329400000000001E-01
          EcF_3 =   2.0123100000000001E+01
          EcF_4 =   1.0157800000000000E+02
          EcP_1 =   3.1090699999999999E-02
          EcP_2 =  -4.0928599999999998E-01
          EcP_3 =   1.3071999999999999E+01
          EcP_4 =   4.2719799999999999E+01
              c =   6.2035049089939986E-01
         two_13 =   1.2599210498948732E+00

   => LYP_C Functional <=

    LYP Correlation

    B. Miehlich et. al., Chem. Phys. Lett., 157(3), 200-206 (1989)

    GGA   =           TRUE
    Meta  =          FALSE
    LRC   =          FALSE
    Alpha =   8.100000E-01
    Omega =   0.000000E+00

    > Parameters <

              A =   4.9180000000000001E-02
              B =   1.3200000000000001E-01
              C =   2.5330000000000003E-01
          CFext =   3.6462398978764774E+01
             Dd =   3.4899999999999998E-01

   => Molecular Quadrature <=

    Radial Scheme    =       TREUTLER
    Pruning Scheme   =           FLAT
    Nuclear Scheme   =       TREUTLER

    BS radius alpha  =              1
    Pruning alpha    =              1
    Radial Points    =             75
    Spherical Points =            302
    Total Points     =          66277
    Total Blocks     =            113
    Max Points       =            999
    Max Functions    =             24


  -Nuclear Gradient:
     Atom            X                  Y                   Z
    ------   -----------------  -----------------  -----------------
       1        0.000000000000     0.000000000000     3.060573349415
       2        0.000000000000     2.103987302385    -1.530286674707
       3        0.000000000000    -2.103987302385    -1.530286674707


  -Kinetic Gradient:
     Atom            X                  Y                   Z
    ------   -----------------  -----------------  -----------------
       1        0.000000000000     0.000000000000     0.958863504226
       2        0.000000000000     0.634161601011    -0.479431752113
       3        0.000000000000    -0.634161601011    -0.479431752113


  -Potential Gradient:
     Atom            X                  Y                   Z
    ------   -----------------  -----------------  -----------------
       1        0.000000000000     0.000000000000    -8.807687303828
       2        0.000000000000    -5.835309376272     4.403843651914
       3        0.000000000000     5.835309376272     4.403843651914


  -Overlap Gradient:
     Atom            X                  Y                   Z
    ------   -----------------  -----------------  -----------------
       1        0.000000000000    -0.000000000000     0.381255703010
       2        0.000000000000     0.224211782597    -0.190627851505
       3        0.000000000000    -0.224211782597    -0.190627851505


  -Coulomb Gradient:
     Atom            X                  Y                   Z
    ------   -----------------  -----------------  -----------------
       1       -0.000000000000    -0.000000000002     4.966073737059
       2        0.000000000000     3.232550402728    -2.483036868530
       3        0.000000000000    -3.232550402727    -2.483036868529


  -Exchange Gradient:
     Atom            X                  Y                   Z
    ------   -----------------  -----------------  -----------------
       1        0.000000000000    -0.000000000000    -0.137232039523
       2       -0.000000000000    -0.088577953264     0.068616019762
       3       -0.000000000000     0.088577953264     0.068616019762


  -XC Gradient:
     Atom            X                  Y                   Z
    ------   -----------------  -----------------  -----------------
       1       -0.000000000000    -0.000000000000    -0.392254124872
       2        0.000000000000    -0.254174559267     0.196116509744
       3       -0.000000000000     0.254174559267     0.196116509744


  -Total Gradient:
     Atom            X                  Y                   Z
    ------   -----------------  -----------------  -----------------
       1       -0.000000000000    -0.000000000002     0.029592825486
       2        0.000000000000     0.016849199919    -0.014806965436
       3        0.000000000000    -0.016849199917    -0.014806965434


*** tstop() called on qcband at Sat Apr 11 15:48:57 2015
Module time:
	user time   =       1.34 seconds =       0.02 minutes
	system time =       0.12 seconds =       0.00 minutes
	total time  =          2 seconds =       0.03 minutes
Total time:
	user time   =      11.88 seconds =       0.20 minutes
	system time =       0.40 seconds =       0.01 minutes
	total time  =         13 seconds =       0.22 minutes

			-----------------------------------------
			 OPTKING 2.0: for geometry optimizations 
			  - R.A. King,  Bethel University        
			-----------------------------------------
conv_max_force         =           3.00e-04
conv_rms_force         =           0.00e+00
conv_max_DE            =           1.00e-06
conv_max_disp          =           1.20e-03
conv_rms_disp          =           0.00e+00
scale_connectivity     =           1.30e+00
interfragment_scale_connectivity =           1.80e+00
fragment_mode          =             single
interfragment_mode        =              fixed
generate_intcos_only   =              false
rfo_follow_root        =              false
rfo_root               =                  0
rfo_normalization_min  =           1.00e-08
step_type              =                RFO
linesearch_static_N    =                  8
linesearch_static_min  =          1.000e-03
linesearch_static_max  =          1.000e-01
intrafragment_H        =           Schlegel
interfragment_H        =            Default
H_update               =               BFGS
H_update_use_last      =                  1
freeze_intrafragment   =              false
intrafragment_step_limit=          4.00e-01
interfragment_step_limit=          4.00e-01
H_update_limit         =               true
H_update_limit_scale   =           5.00e-01
H_update_limit_max     =           1.00e+00
interfragment_distance_inverse=       false
write_final_step_geometry=            false
maximum_H_bond_distance=           4.30e+00
read_cartesian_H       =              false
efp_fragments          =              false
efp_fragments_only     =              false
frozen_distance: 

frozen_bend: 

frozen_dihedral: 

fixed_distance: 

fixed_bend: 

fixed_dihedral: 


	Internal coordinates to be generated automatically.
	Detected frag with atoms:  1 2 3
	---Fragment 1 Bond Connectivity---
	 1 : 2 3
	 2 : 1
	 3 : 1

	---Fragment 1 Geometry and Gradient---
	 O           0.0000000000        0.0000000000       -0.1224203858
	 H           0.0000000000       -1.4146651616        0.9714501807
	 H           0.0000000000        1.4146651616        0.9714501807
	            -0.0000000000       -0.0000000000        0.0295928255
	             0.0000000000        0.0168491999       -0.0148069654
	             0.0000000000       -0.0168491999       -0.0148069654

	Previous optimization step data not found.  Starting new optimization.

	---Fragment 1 Intrafragment Coordinates---
	 - Coordinate -           - BOHR/RAD -       - ANG/DEG -
	 R(1,2)           =         1.788248	       0.946300
	 R(1,3)           =         1.788248	       0.946300
	 B(2,1,3)         =         1.825178	     104.575000

	Current energy   :       -76.4196837170

B matrix
 -0.000000  0.791090 -0.611700  0.000000 -0.791090  0.611700  0.000000  0.000000  0.000000
 -0.000000 -0.791090 -0.611700  0.000000  0.000000  0.000000  0.000000  0.791090  0.611700
  0.000000  0.000000  0.884766  0.000000 -0.342066 -0.442383  0.000000  0.342066 -0.442383
Internal forces in au
  0.022382  0.022382 -0.002506
	Generating empirical Hessian (Schlegel '84) for each fragment.
Initial Hessian guess
  0.585276  0.000000  0.000000
  0.000000  0.585276  0.000000
  0.000000  0.000000  0.160000
	Projection matrix for redundancies.
  1.000000 -0.000000 -0.000000
 -0.000000  1.000000  0.000000
 -0.000000  0.000000  1.000000
Constraint matrix
  0.000000  0.000000  0.000000
  0.000000  0.000000  0.000000
  0.000000  0.000000  0.000000
	Internal forces in au, after projection of redundancies and constraints.
  0.022382  0.022382 -0.002506
Projected (PHP) Hessian matrix
  0.585276 -0.000000 -0.000000
 -0.000000  0.585276  0.000000
 -0.000000  0.000000  0.160000
RFO mat
  0.585276  0.000000  0.000000  0.000000
 -0.000000  0.585276  0.000000  0.000000
 -0.000000  0.000000  0.160000  0.000000
 -0.022382 -0.022382  0.002506  0.000000
RFO eigenvalues/lambdas
 -0.001746  0.160039  0.585276  0.586983
RFO eigenvectors (rows)
  0.038129  0.038129 -0.015494  1.000000
  0.052635  0.052635 64.799783  1.000000
  0.707107 -0.707107 -0.000000 -0.000000
-13.112310-13.112310  0.005869  1.000000
	Going to follow RFO solution 1.
RFO eigenvalue 1:   -0.0017456467 (or 2*-0.0008728233  )
eigenvector:
  0.038129  0.038129 -0.015494  1.000000
	Projected energy change by RFO approximation:        -0.0008728233

	Back-transformation to cartesian coordinates...
	---------------------------------------------------
	 Iter        RMS(dx)        Max(dx)        RMS(dq) 
	---------------------------------------------------

Original q internal coordinates
	   1.7882478395
	   1.7882478395
	   1.8251780653

Target q internal coordinates
	   1.8263764785
	   1.8263764785
	   1.8096839732
	    1        1.4e-02        2.3e-02        1.9e-04
	    2        1.2e-04        2.2e-04        2.0e-08
	    3        8.7e-09        1.4e-08        1.8e-16
	---------------------------------------------
	Successfully converged to displaced geometry.

	---Internal Coordinate Step in ANG or DEG, aJ/ANG or AJ/DEG ---
	 ----------------------------------------------------------------------
	 Coordinate             Previous        Force       Change         New 
	 ----------             --------       ------       ------       ------
	 R(1,2)          =      0.946300     0.184402     0.020177     0.966477
	 R(1,3)          =      0.946300     0.184402     0.020177     0.966477
	 B(2,1,3)        =    104.575000    -0.000191    -0.887746   103.687254
	 ----------------------------------------------------------------------

  ==> Convergence Check <==

  Measures of convergence in internal coordinates in au.
  Criteria marked as inactive (o), active & met (*), and active & unmet ( ).
  --------------------------------------------------------------------------------------------- ~
   Step     Total Energy     Delta E     MAX Force     RMS Force      MAX Disp      RMS Disp    ~
  --------------------------------------------------------------------------------------------- ~
    Convergence Criteria    1.00e-06 *    3.00e-04 *             o    1.20e-03 *             o  ~
  --------------------------------------------------------------------------------------------- ~
      1     -76.41968372   -7.64e+01      2.24e-02      1.83e-02 o    3.81e-02      3.24e-02 o  ~
  ---------------------------------------------------------------------------------------------

	Writing optimization data to binary file.
	Structure for next step:
	Cartesian Geometry (in Angstrom)
	    O     0.0000000000   0.0000000000  -0.0769470882
	    H     0.0000000000  -0.7599673904   0.5201518368
	    H     0.0000000000   0.7599673904   0.5201518368
			--------------------------
			 OPTKING Finished Execution 
			--------------------------

    Structure for next step:
    Molecular point group: c2v
    Full point group: C2v

    Geometry (in Angstrom), charge = 0, multiplicity = 1:

    O       
    H             1    0.966477
    H             1    0.966477      2  103.687254


  No DF_BASIS_SCF auxiliary basis selected, defaulting to cc-pvdz-jkfit


*** tstart() called on qcband
*** at Sat Apr 11 15:48:57 2015

	There are an even number of electrons - assuming singlet.
	Specify the multiplicity with the MULTP option in the
	input if this is incorrect


         ---------------------------------------------------------
                                   SCF
            by Justin Turney, Rob Parrish, and Andy Simmonett
                              RKS Reference
                        1 Threads,    250 MiB Core
         ---------------------------------------------------------

  ==> Geometry <==

    Molecular point group: c2v
    Full point group: C2v

    Geometry (in Angstrom), charge = 0, multiplicity = 1:

       Center              X                  Y                   Z       
    ------------   -----------------  -----------------  -----------------
           O          0.000000000000     0.000000000000    -0.066824245411
           H          0.000000000000    -0.759967332368     0.530274633920
           H          0.000000000000     0.759967332368     0.530274633920

  Running in c2v symmetry.

  Nuclear repulsion =    9.108673667234529

  Charge       = 0
  Multiplicity = 1
  Electrons    = 10
  Nalpha       = 5
  Nbeta        = 5

  ==> Algorithm <==

  SCF Algorithm Type is DF.
  DIIS enabled.
  MOM disabled.
  Fractional occupation disabled.
  Guess Type is READ.
  Energy threshold   = 1.00e-08
  Density threshold  = 1.00e-08
  Integral threshold = 0.00e+00

  ==> Primary Basis <==

  -AO BASIS SET INFORMATION:
    Name                   = CC-PVDZ
    Total number of shells = 12
    Number of primitives   = 32
    Number of AO           = 25
    Number of SO           = 24
    Maximum AM             = 2
    Spherical Harmonics    = TRUE

  -Contraction Scheme:
    Atom   Type   All Primitives // Shells:
   ------ ------ --------------------------
       1     O     17s 4p 1d // 3s 2p 1d 
       2     H     4s 1p // 2s 1p 
       3     H     4s 1p // 2s 1p 

  ==> AO Basis Functions <==

    [ CC-PVDZ ]
    spherical
    ****
    O   1
    S   8 1.00
                     11720.00000000           0.56970172
                      1759.00000000           1.05835210
                       400.80000000           1.77628106
                       113.70000000           2.59941189
                        37.03000000           3.02684600
                        13.27000000           2.22239433
                         5.02500000           0.64779543
                         1.01300000           0.01111870
    S   8 1.00
                     11720.00000000          -0.25243426
                      1759.00000000          -0.48049109
                       400.80000000          -0.78629966
                       113.70000000          -1.25416990
                        37.03000000          -1.49121792
                        13.27000000          -1.61083178
                         5.02500000          -0.54979838
                         1.01300000           0.78828221
    S   1 1.00
                         0.30230000           0.29056192
    P   3 1.00
                        17.70000000           3.24361935
                         3.85400000           2.56727965
                         1.04600000           1.11766932
    P   1 1.00
                         0.27530000           0.28424828
    D   1 1.00
                         1.18500000           2.21521850
    ****
    H   2
    S   3 1.00
                        13.01000000           0.16354842
                         1.96200000           0.27741754
                         0.44460000           0.31574931
    S   1 1.00
                         0.12200000           0.14712279
    P   1 1.00
                         0.72700000           0.95688138
    ****

  ==> DFT Potential <==

   => B3LYP Composite Functional <= 

    B3LYP Hybrid-GGA Exchange-Correlation Functional

    P.J. Stephens et. al., J. Phys. Chem., 98, 11623-11627, 1994

    Points   =           5000
    Deriv    =              1
    GGA      =           TRUE
    Meta     =          FALSE

    X_LRC        =          FALSE
    X_Hybrid     =           TRUE
    X_Alpha      =   2.000000E-01
    X_Omega      =   0.000000E+00
    C_LRC        =          FALSE
    C_Hybrid     =          FALSE
    C_SCS_Hybrid =          FALSE
    C_Alpha      =   0.000000E+00
    C_SS_Alpha   =   0.000000E+00
    C_OS_Alpha   =   0.000000E+00

   => Exchange Functionals <=

    0.8000  B3_X
    0.2000    HF 

   => Correlation Functionals <=

    0.1900 VWN3RPA_C
    0.8100 LYP_C
    0.0000 DF-MP2 

   => B3_X Functional <=

    Becke88 GGA Exchange (B3LYP weighting)

    P.J. Stephens et. al., J. Phys. Chem., 98, 11623-11627, 1994

    GGA   =           TRUE
    Meta  =          FALSE
    LRC   =          FALSE
    Alpha =   1.000000E+00
    Omega =   0.000000E+00

    > Parameters <

          B88_a =   9.0000000000000002E-01
          B88_d =   4.1999999999999997E-03

   => VWN3RPA_C Functional <=

    VWN3 (RPA) LSDA Correlation

    S.H. Vosko, L. Wilk, and M. Nusair, Can. J. Phys., 58, 1200-1211, 1980

    GGA   =          FALSE
    Meta  =          FALSE
    LRC   =          FALSE
    Alpha =   1.900000E-01
    Omega =   0.000000E+00

    > Parameters <

          EcF_1 =   1.5545349999999999E-02
          EcF_2 =  -7.4329400000000001E-01
          EcF_3 =   2.0123100000000001E+01
          EcF_4 =   1.0157800000000000E+02
          EcP_1 =   3.1090699999999999E-02
          EcP_2 =  -4.0928599999999998E-01
          EcP_3 =   1.3071999999999999E+01
          EcP_4 =   4.2719799999999999E+01
              c =   6.2035049089939986E-01
         two_13 =   1.2599210498948732E+00

   => LYP_C Functional <=

    LYP Correlation

    B. Miehlich et. al., Chem. Phys. Lett., 157(3), 200-206 (1989)

    GGA   =           TRUE
    Meta  =          FALSE
    LRC   =          FALSE
    Alpha =   8.100000E-01
    Omega =   0.000000E+00

    > Parameters <

              A =   4.9180000000000001E-02
              B =   1.3200000000000001E-01
              C =   2.5330000000000003E-01
          CFext =   3.6462398978764774E+01
             Dd =   3.4899999999999998E-01

   => Molecular Quadrature <=

    Radial Scheme    =       TREUTLER
    Pruning Scheme   =           FLAT
    Nuclear Scheme   =       TREUTLER

    BS radius alpha  =              1
    Pruning alpha    =              1
    Radial Points    =             75
    Spherical Points =            302
    Total Points     =          66331
    Total Blocks     =            114
    Max Points       =            980
    Max Functions    =             24

  ==> Pre-Iterations <==

   -------------------------------------------------------
    Irrep   Nso     Nmo     Nalpha   Nbeta   Ndocc  Nsocc
   -------------------------------------------------------
     A1        11      11       0       0       0       0
     A2         2       2       0       0       0       0
     B1         4       4       0       0       0       0
     B2         7       7       0       0       0       0
   -------------------------------------------------------
    Total      24      24       5       5       5       0
   -------------------------------------------------------

 OEINTS: Wrapper to libmints.
   by Justin Turney

   Calculation information:
      Number of atoms:                   3
      Number of AO shells:              12
      Number of SO shells:               9
      Number of primitives:             32
      Number of atomic orbitals:        25
      Number of basis functions:        24

      Number of irreps:                  4
      Number of functions per irrep: [  11    2    4    7 ]

      Overlap, kinetic, potential, dipole, and quadrupole integrals
        stored in file 35.

  ==> Integral Setup <==

  ==> DFJK: Density-Fitted J/K Matrices <==

    J tasked:                  Yes
    K tasked:                  Yes
    wK tasked:                  No
    OpenMP threads:              1
    Integrals threads:           1
    Memory (MB):               178
    Algorithm:                Core
    Integral Cache:           NONE
    Schwarz Cutoff:          1E-12
    Fitting Condition:       1E-12

   => Auxiliary Basis Set <=

  -AO BASIS SET INFORMATION:
    Name                   = cc-pvdz-jkfit
    Total number of shells = 42
    Number of primitives   = 42
    Number of AO           = 131
    Number of SO           = 116
    Maximum AM             = 3
    Spherical Harmonics    = TRUE

  -Contraction Scheme:
    Atom   Type   All Primitives // Shells:
   ------ ------ --------------------------
       1     O     10s 7p 5d 2f // 10s 7p 5d 2f 
       2     H     4s 3p 2d // 4s 3p 2d 
       3     H     4s 3p 2d // 4s 3p 2d 

  ==> AO Basis Functions <==

    [ cc-pvdz-jkfit ]
    spherical
    ****
    O   1
    S   1 1.00
                      1517.86675060         173.31467137
    S   1 1.00
                       489.67952008          74.18977396
    S   1 1.00
                       176.72118665          34.54431272
    S   1 1.00
                        63.79223314          16.08740319
    S   1 1.00
                        25.36649913           8.05574096
    S   1 1.00
                         9.91354912           3.98182312
    S   1 1.00
                         4.46453066           2.18898079
    S   1 1.00
                         1.80177437           1.10837162
    S   1 1.00
                         0.80789711           0.60733335
    S   1 1.00
                         0.33864327           0.31638576
    P   1 1.00
                       120.16030921         567.07615295
    P   1 1.00
                        34.40962247         118.79275995
    P   1 1.00
                        12.58114861          33.77461859
    P   1 1.00
                         5.06638242          10.83459166
    P   1 1.00
                         2.03469271           3.46388627
    P   1 1.00
                         0.86092967           1.18208765
    P   1 1.00
                         0.36681357           0.40690856
    D   1 1.00
                        19.04306281         285.72540432
    D   1 1.00
                         5.80603811          35.74367890
    D   1 1.00
                         2.18918416           6.48490288
    D   1 1.00
                         0.87794614           1.31062436
    D   1 1.00
                         0.35623647           0.27036572
    F   1 1.00
                         2.49391479          11.50636308
    F   1 1.00
                         0.82491479           0.95471754
    ****
    H   2
    S   1 1.00
                         9.53024933           3.86579028
    S   1 1.00
                         1.91745062           1.16132355
    S   1 1.00
                         0.68424049           0.53618748
    S   1 1.00
                         0.28413256           0.27736448
    P   1 1.00
                         2.91332320           5.42532703
    P   1 1.00
                         1.26212054           1.90684824
    P   1 1.00
                         0.50199776           0.60230617
    D   1 1.00
                         2.31353291           7.14318502
    D   1 1.00
                         0.71290724           0.91036856
    ****

  Minimum eigenvalue in the overlap matrix is 3.4723512507E-02.
  Using Symmetric Orthogonalization.
  SCF Guess: Projection.

  Using orbitals from previous SCF, no projection.
  ==> Iterations <==

                           Total Energy        Delta E     RMS |[F,P]|

   @DF-RKS iter   0:   -76.39785013785085   -7.63979e+01   5.07949e-03 
	Occupation by irrep:
	         A1    A2    B1    B2 
	DOCC [     3,    0,    1,    1 ]

   @DF-RKS iter   1:   -76.42051904553747   -2.26689e-02   1.14429e-03 
DIIS coefficients:  0.572  0.428 
	Occupation by irrep:
	         A1    A2    B1    B2 
	DOCC [     3,    0,    1,    1 ]

   @DF-RKS iter   2:   -76.42046496148050    5.40841e-05   1.51751e-03 DIIS
DIIS coefficients:  0.143  0.116  0.741 
	Occupation by irrep:
	         A1    A2    B1    B2 
	DOCC [     3,    0,    1,    1 ]

   @DF-RKS iter   3:   -76.42061745214517   -1.52491e-04   8.97747e-05 DIIS
DIIS coefficients:  -0.007  -0.014  0.018  1.004 
	Occupation by irrep:
	         A1    A2    B1    B2 
	DOCC [     3,    0,    1,    1 ]

   @DF-RKS iter   4:   -76.42061797009184   -5.17947e-07   1.55170e-05 DIIS
DIIS coefficients:  -0.000  0.000  -0.005  -0.047  1.052 
	Occupation by irrep:
	         A1    A2    B1    B2 
	DOCC [     3,    0,    1,    1 ]

   @DF-RKS iter   5:   -76.42061798667267   -1.65808e-08   2.57669e-07 DIIS
DIIS coefficients:  0.000  0.000  0.000  0.000  -0.045  1.045 
	Occupation by irrep:
	         A1    A2    B1    B2 
	DOCC [     3,    0,    1,    1 ]

   @DF-RKS iter   6:   -76.42061798669044   -1.77778e-11   2.91423e-08 DIIS
DIIS coefficients:  0.000  -0.000  0.000  0.000  -0.006  -0.011  1.017 
	Occupation by irrep:
	         A1    A2    B1    B2 
	DOCC [     3,    0,    1,    1 ]

   @DF-RKS iter   7:   -76.42061798669052   -7.10543e-14   2.20829e-09 DIIS

  ==> Post-Iterations <==

	Orbital Energies (a.u.)
	-----------------------

	Doubly Occupied:                                                      

	   1A1   -19.123889     2A1    -0.992057     1B2    -0.509288  
	   3A1    -0.365667     1B1    -0.287614  

	Virtual:                                                              

	   4A1     0.049918     2B2     0.125762     3B2     0.553587  
	   5A1     0.610008     6A1     0.902577     2B1     0.918432  
	   4B2     0.995505     7A1     1.198790     1A2     1.233900  
	   3B1     1.421929     8A1     1.592686     5B2     1.666795  
	   6B2     2.096274     9A1     2.135294     4B1     2.918194  
	   2A2     2.955628    10A1     3.125068    11A1     3.453705  
	   7B2     3.732502  

	Final Occupation by Irrep:
	         A1    A2    B1    B2 
	DOCC [     3,    0,    1,    1 ]

  Energy converged.

  @DF-RKS Final Energy:   -76.42061798669052

   => Energetics <=

    Nuclear Repulsion Energy =              9.1086736672345285
    One-Electron Energy =                -123.0669135342013192
    Two-Electron Energy =                  45.1088011226570700
    DFT Exchange-Correlation Energy =      -7.5711792423807953
    Empirical Dispersion Energy =           0.0000000000000000
    Total Energy =                        -76.4206179866905160



Properties will be evaluated at   0.000000,   0.000000,   0.000000 Bohr
  ==> Properties <==


Properties computed using the SCF density density matrix
  Nuclear Dipole Moment: (a.u.)
     X:     0.0000      Y:     0.0000      Z:     0.9939

  Electronic Dipole Moment: (a.u.)
     X:     0.0000      Y:     0.0000      Z:    -0.2367

  Dipole Moment: (a.u.)
     X:     0.0000      Y:     0.0000      Z:     0.7572     Total:     0.7572

  Dipole Moment: (Debye)
     X:     0.0000      Y:     0.0000      Z:     1.9247     Total:     1.9247

  Quadrupole Moment: (Debye Ang)
    XX:    -6.9961     YY:    -4.2975     ZZ:    -5.6972
    XY:     0.0000     XZ:     0.0000     YZ:     0.0000

  Traceless Quadrupole Moment: (Debye Ang)
    XX:    -1.3325     YY:     1.3661     ZZ:    -0.0336
    XY:     0.0000     XZ:     0.0000     YZ:     0.0000

  Mulliken Charges: (a.u.)
   Center  Symbol    Alpha    Beta     Spin     Total
       1     O     4.13125  4.13125  0.00000 -0.26250
       2     H     0.43437  0.43437  0.00000  0.13125
       3     H     0.43437  0.43437  0.00000  0.13125

   Total alpha =  5.00000, Total beta =  5.00000, Total charge =  0.00000



  Lowdin Charges [a.u.]:

   Center  Symbol    Alpha    Beta     Spin     Total
       1     O     4.04477  4.04477  0.00000 -0.08953
       2     H     0.47762  0.47762  0.00000  0.04477
       3     H     0.47762  0.47762  0.00000  0.04477

  Total alpha =  5.00000, Total beta =  5.00000, Total charge = -0.00000


  Mayer Bond Indices:

  Irrep: 1 Size: 3 x 3

                 1            2            3

    1    0.0000000    1.0313230    1.0313230
    2    1.0313230    0.0000000    0.0066944
    3    1.0313230    0.0066944    0.0000000



  Atomic Valences: 

 #  #
 Irrep: 1
      1:  2.0626460
      2:  1.0380174
      3:  1.0380174



  Wiberg Bond Indices using Orthogonal Lowdin Orbitals:

  Irrep: 1 Size: 3 x 3

                 1            2            3

    1    0.0000000    1.1897580    1.1897580
    2    1.1897580    0.0000000    0.0652875
    3    1.1897580    0.0652875    0.0000000



  Atomic Valences: 

 #  #
 Irrep: 1
      1:  2.3795161
      2:  1.2550455
      3:  1.2550455


  Saving occupied orbitals to File 180.

*** tstop() called on qcband at Sat Apr 11 15:49:05 2015
Module time:
	user time   =       8.07 seconds =       0.13 minutes
	system time =       0.02 seconds =       0.00 minutes
	total time  =          8 seconds =       0.13 minutes
Total time:
	user time   =      19.96 seconds =       0.33 minutes
	system time =       0.42 seconds =       0.01 minutes
	total time  =         21 seconds =       0.35 minutes

  No DF_BASIS_SCF auxiliary basis selected, defaulting to cc-pvdz-jkfit


*** tstart() called on qcband
*** at Sat Apr 11 15:49:05 2015


         ------------------------------------------------------------
                                   SCF GRAD                          
                          Rob Parrish, Justin Turney,                
                       Andy Simmonett, and Alex Sokolov              
         ------------------------------------------------------------

  ==> Geometry <==

    Molecular point group: c2v
    Full point group: C2v

    Geometry (in Angstrom), charge = 0, multiplicity = 1:

       Center              X                  Y                   Z       
    ------------   -----------------  -----------------  -----------------
           O          0.000000000000     0.000000000000    -0.066824245411
           H          0.000000000000    -0.759967332368     0.530274633920
           H          0.000000000000     0.759967332368     0.530274633920

  Nuclear repulsion =    9.108673667234529

  ==> Basis Set <==

  -AO BASIS SET INFORMATION:
    Name                   = CC-PVDZ
    Total number of shells = 12
    Number of primitives   = 32
    Number of AO           = 25
    Number of SO           = 24
    Maximum AM             = 2
    Spherical Harmonics    = TRUE

  -Contraction Scheme:
    Atom   Type   All Primitives // Shells:
   ------ ------ --------------------------
       1     O     17s 4p 1d // 3s 2p 1d 
       2     H     4s 1p // 2s 1p 
       3     H     4s 1p // 2s 1p 

  ==> AO Basis Functions <==

    [ CC-PVDZ ]
    spherical
    ****
    O   1
    S   8 1.00
                     11720.00000000           0.56970172
                      1759.00000000           1.05835210
                       400.80000000           1.77628106
                       113.70000000           2.59941189
                        37.03000000           3.02684600
                        13.27000000           2.22239433
                         5.02500000           0.64779543
                         1.01300000           0.01111870
    S   8 1.00
                     11720.00000000          -0.25243426
                      1759.00000000          -0.48049109
                       400.80000000          -0.78629966
                       113.70000000          -1.25416990
                        37.03000000          -1.49121792
                        13.27000000          -1.61083178
                         5.02500000          -0.54979838
                         1.01300000           0.78828221
    S   1 1.00
                         0.30230000           0.29056192
    P   3 1.00
                        17.70000000           3.24361935
                         3.85400000           2.56727965
                         1.04600000           1.11766932
    P   1 1.00
                         0.27530000           0.28424828
    D   1 1.00
                         1.18500000           2.21521850
    ****
    H   2
    S   3 1.00
                        13.01000000           0.16354842
                         1.96200000           0.27741754
                         0.44460000           0.31574931
    S   1 1.00
                         0.12200000           0.14712279
    P   1 1.00
                         0.72700000           0.95688138
    ****

  ==> DFJKGrad: Density-Fitted SCF Gradients <==

    Gradient:                    1
    J tasked:                  Yes
    K tasked:                  Yes
    wK tasked:                  No
    OpenMP threads:              1
    Integrals threads:           1
    Memory (MB):               178
    Schwarz Cutoff:          0E+00
    Fitting Condition:       1E-12

   => Auxiliary Basis Set <=

  -AO BASIS SET INFORMATION:
    Name                   = cc-pvdz-jkfit
    Total number of shells = 42
    Number of primitives   = 42
    Number of AO           = 131
    Number of SO           = 116
    Maximum AM             = 3
    Spherical Harmonics    = TRUE

  -Contraction Scheme:
    Atom   Type   All Primitives // Shells:
   ------ ------ --------------------------
       1     O     10s 7p 5d 2f // 10s 7p 5d 2f 
       2     H     4s 3p 2d // 4s 3p 2d 
       3     H     4s 3p 2d // 4s 3p 2d 

  ==> AO Basis Functions <==

    [ cc-pvdz-jkfit ]
    spherical
    ****
    O   1
    S   1 1.00
                      1517.86675060         173.31467137
    S   1 1.00
                       489.67952008          74.18977396
    S   1 1.00
                       176.72118665          34.54431272
    S   1 1.00
                        63.79223314          16.08740319
    S   1 1.00
                        25.36649913           8.05574096
    S   1 1.00
                         9.91354912           3.98182312
    S   1 1.00
                         4.46453066           2.18898079
    S   1 1.00
                         1.80177437           1.10837162
    S   1 1.00
                         0.80789711           0.60733335
    S   1 1.00
                         0.33864327           0.31638576
    P   1 1.00
                       120.16030921         567.07615295
    P   1 1.00
                        34.40962247         118.79275995
    P   1 1.00
                        12.58114861          33.77461859
    P   1 1.00
                         5.06638242          10.83459166
    P   1 1.00
                         2.03469271           3.46388627
    P   1 1.00
                         0.86092967           1.18208765
    P   1 1.00
                         0.36681357           0.40690856
    D   1 1.00
                        19.04306281         285.72540432
    D   1 1.00
                         5.80603811          35.74367890
    D   1 1.00
                         2.18918416           6.48490288
    D   1 1.00
                         0.87794614           1.31062436
    D   1 1.00
                         0.35623647           0.27036572
    F   1 1.00
                         2.49391479          11.50636308
    F   1 1.00
                         0.82491479           0.95471754
    ****
    H   2
    S   1 1.00
                         9.53024933           3.86579028
    S   1 1.00
                         1.91745062           1.16132355
    S   1 1.00
                         0.68424049           0.53618748
    S   1 1.00
                         0.28413256           0.27736448
    P   1 1.00
                         2.91332320           5.42532703
    P   1 1.00
                         1.26212054           1.90684824
    P   1 1.00
                         0.50199776           0.60230617
    D   1 1.00
                         2.31353291           7.14318502
    D   1 1.00
                         0.71290724           0.91036856
    ****

  ==> DFT Potential <==

   => B3LYP Composite Functional <= 

    B3LYP Hybrid-GGA Exchange-Correlation Functional

    P.J. Stephens et. al., J. Phys. Chem., 98, 11623-11627, 1994

    Points   =           5000
    Deriv    =              1
    GGA      =           TRUE
    Meta     =          FALSE

    X_LRC        =          FALSE
    X_Hybrid     =           TRUE
    X_Alpha      =   2.000000E-01
    X_Omega      =   0.000000E+00
    C_LRC        =          FALSE
    C_Hybrid     =          FALSE
    C_SCS_Hybrid =          FALSE
    C_Alpha      =   0.000000E+00
    C_SS_Alpha   =   0.000000E+00
    C_OS_Alpha   =   0.000000E+00

   => Exchange Functionals <=

    0.8000  B3_X
    0.2000    HF 

   => Correlation Functionals <=

    0.1900 VWN3RPA_C
    0.8100 LYP_C
    0.0000 DF-MP2 

   => B3_X Functional <=

    Becke88 GGA Exchange (B3LYP weighting)

    P.J. Stephens et. al., J. Phys. Chem., 98, 11623-11627, 1994

    GGA   =           TRUE
    Meta  =          FALSE
    LRC   =          FALSE
    Alpha =   1.000000E+00
    Omega =   0.000000E+00

    > Parameters <

          B88_a =   9.0000000000000002E-01
          B88_d =   4.1999999999999997E-03

   => VWN3RPA_C Functional <=

    VWN3 (RPA) LSDA Correlation

    S.H. Vosko, L. Wilk, and M. Nusair, Can. J. Phys., 58, 1200-1211, 1980

    GGA   =          FALSE
    Meta  =          FALSE
    LRC   =          FALSE
    Alpha =   1.900000E-01
    Omega =   0.000000E+00

    > Parameters <

          EcF_1 =   1.5545349999999999E-02
          EcF_2 =  -7.4329400000000001E-01
          EcF_3 =   2.0123100000000001E+01
          EcF_4 =   1.0157800000000000E+02
          EcP_1 =   3.1090699999999999E-02
          EcP_2 =  -4.0928599999999998E-01
          EcP_3 =   1.3071999999999999E+01
          EcP_4 =   4.2719799999999999E+01
              c =   6.2035049089939986E-01
         two_13 =   1.2599210498948732E+00

   => LYP_C Functional <=

    LYP Correlation

    B. Miehlich et. al., Chem. Phys. Lett., 157(3), 200-206 (1989)

    GGA   =           TRUE
    Meta  =          FALSE
    LRC   =          FALSE
    Alpha =   8.100000E-01
    Omega =   0.000000E+00

    > Parameters <

              A =   4.9180000000000001E-02
              B =   1.3200000000000001E-01
              C =   2.5330000000000003E-01
          CFext =   3.6462398978764774E+01
             Dd =   3.4899999999999998E-01

   => Molecular Quadrature <=

    Radial Scheme    =       TREUTLER
    Pruning Scheme   =           FLAT
    Nuclear Scheme   =       TREUTLER

    BS radius alpha  =              1
    Pruning alpha    =              1
    Radial Points    =             75
    Spherical Points =            302
    Total Points     =          66331
    Total Blocks     =            114
    Max Points       =            980
    Max Functions    =             24


  -Nuclear Gradient:
     Atom            X                  Y                   Z
    ------   -----------------  -----------------  -----------------
       1        0.000000000000     0.000000000000     2.963426714735
       2        0.000000000000     2.007088729282    -1.481713357367
       3        0.000000000000    -2.007088729282    -1.481713357367


  -Kinetic Gradient:
     Atom            X                  Y                   Z
    ------   -----------------  -----------------  -----------------
       1        0.000000000000    -0.000000000000     0.929270238349
       2        0.000000000000     0.602958928010    -0.464635119175
       3        0.000000000000    -0.602958928010    -0.464635119175


  -Potential Gradient:
     Atom            X                  Y                   Z
    ------   -----------------  -----------------  -----------------
       1        0.000000000000    -0.000000000000    -8.647186718095
       2        0.000000000000    -5.627288769099     4.323593359048
       3        0.000000000000     5.627288769099     4.323593359048


  -Overlap Gradient:
     Atom            X                  Y                   Z
    ------   -----------------  -----------------  -----------------
       1        0.000000000000    -0.000000000000     0.378115376458
       2        0.000000000000     0.218486399293    -0.189057688229
       3        0.000000000000    -0.218486399293    -0.189057688229


  -Coulomb Gradient:
     Atom            X                  Y                   Z
    ------   -----------------  -----------------  -----------------
       1       -0.000000000000    -0.000000000006     4.901531346247
       2       -0.000000000000     3.129954287853    -2.450765673126
       3        0.000000000000    -3.129954287847    -2.450765673120


  -Exchange Gradient:
     Atom            X                  Y                   Z
    ------   -----------------  -----------------  -----------------
       1        0.000000000000     0.000000000000    -0.135239487201
       2        0.000000000000    -0.085617106982     0.067619743600
       3       -0.000000000000     0.085617106982     0.067619743600


  -XC Gradient:
     Atom            X                  Y                   Z
    ------   -----------------  -----------------  -----------------
       1        0.000000000000     0.000000000000    -0.385816424035
       2        0.000000000000    -0.245175184765     0.192899150420
       3        0.000000000000     0.245175184765     0.192899150420


  -Total Gradient:
     Atom            X                  Y                   Z
    ------   -----------------  -----------------  -----------------
       1        0.000000000000    -0.000000000006     0.004101046457
       2        0.000000000000     0.000407283591    -0.002059584829
       3        0.000000000000    -0.000407283585    -0.002059584824


*** tstop() called on qcband at Sat Apr 11 15:49:06 2015
Module time:
	user time   =       1.37 seconds =       0.02 minutes
	system time =       0.00 seconds =       0.00 minutes
	total time  =          1 seconds =       0.02 minutes
Total time:
	user time   =      21.34 seconds =       0.36 minutes
	system time =       0.42 seconds =       0.01 minutes
	total time  =         22 seconds =       0.37 minutes

			-----------------------------------------
			 OPTKING 2.0: for geometry optimizations 
			  - R.A. King,  Bethel University        
			-----------------------------------------
conv_max_force         =           3.00e-04
conv_rms_force         =           0.00e+00
conv_max_DE            =           1.00e-06
conv_max_disp          =           1.20e-03
conv_rms_disp          =           0.00e+00
scale_connectivity     =           1.30e+00
interfragment_scale_connectivity =           1.80e+00
fragment_mode          =             single
interfragment_mode        =              fixed
generate_intcos_only   =              false
rfo_follow_root        =              false
rfo_root               =                  0
rfo_normalization_min  =           1.00e-08
step_type              =                RFO
linesearch_static_N    =                  8
linesearch_static_min  =          1.000e-03
linesearch_static_max  =          1.000e-01
intrafragment_H        =           Schlegel
interfragment_H        =            Default
H_update               =               BFGS
H_update_use_last      =                  1
freeze_intrafragment   =              false
intrafragment_step_limit=          4.00e-01
interfragment_step_limit=          4.00e-01
H_update_limit         =               true
H_update_limit_scale   =           5.00e-01
H_update_limit_max     =           1.00e+00
interfragment_distance_inverse=       false
write_final_step_geometry=            false
maximum_H_bond_distance=           4.30e+00
read_cartesian_H       =              false
efp_fragments          =              false
efp_fragments_only     =              false
frozen_distance: 

frozen_bend: 

frozen_dihedral: 

fixed_distance: 

fixed_bend: 

fixed_dihedral: 


	Previous internal coordinate definitions found.
	---Fragment 1 Geometry and Gradient---
	 O           0.0000000000        0.0000000000       -0.1262795229
	 H           0.0000000000       -1.4361301281        1.0020738333
	 H           0.0000000000        1.4361301281        1.0020738333
	             0.0000000000       -0.0000000000        0.0041010465
	             0.0000000000        0.0004072836       -0.0020595848
	             0.0000000000       -0.0004072836       -0.0020595848

	---Fragment 1 Intrafragment Coordinates---
	 - Coordinate -           - BOHR/RAD -       - ANG/DEG -
	 R(1,2)           =         1.826376	       0.966477
	 R(1,3)           =         1.826376	       0.966477
	 B(2,1,3)         =         1.809684	     103.687254

	Current energy   :       -76.4206179867

	Energy change for the previous step:
		Projected    :        -0.0008728233
		Actual       :        -0.0009342697
	Energy ratio indicates good step: Trust radius increased to 8.000e-01.

B matrix
 -0.000000  0.786328 -0.617810  0.000000 -0.786328  0.617810  0.000000  0.000000  0.000000
 -0.000000 -0.786328 -0.617810  0.000000  0.000000  0.000000  0.000000  0.786328  0.617810
  0.000000  0.000000  0.861079  0.000000 -0.338271 -0.430540  0.000000  0.338271 -0.430540
Internal forces in au
  0.001589  0.001589 -0.002490

	Performing BFGS update with previous 1 gradient(s).
Updated Hessian (in au)
  0.571728 -0.013548  0.031575
 -0.013548  0.571728  0.031575
  0.031575  0.031575  0.156468
	Projection matrix for redundancies.
  1.000000 -0.000000 -0.000000
 -0.000000  1.000000 -0.000000
 -0.000000 -0.000000  1.000000
Constraint matrix
  0.000000  0.000000  0.000000
  0.000000  0.000000  0.000000
  0.000000  0.000000  0.000000
	Internal forces in au, after projection of redundancies and constraints.
  0.001589  0.001589 -0.002490
Projected (PHP) Hessian matrix
  0.571728 -0.013548  0.031575
 -0.013548  0.571728  0.031575
  0.031575  0.031575  0.156468
RFO mat
  0.571728  0.000000  0.000000  0.000000
 -0.013548  0.571728  0.000000  0.000000
  0.031575  0.031575  0.156468  0.000000
 -0.001589 -0.001589  0.002490  0.000000
RFO eigenvalues/lambdas
 -0.000056  0.151613  0.563090  0.585276
RFO eigenvectors (rows)
  0.003834  0.003834 -0.017452  1.000000
 -4.299445 -4.299445 55.410648  1.000000
-201.727083-201.727082-31.323024  1.000000
 -0.707107  0.707107  0.000000 -0.000000
	Going to follow RFO solution 1.
RFO eigenvalue 1:   -0.0000556315 (or 2*-0.0000278157  )
eigenvector:
  0.003834  0.003834 -0.017452  1.000000
	Projected energy change by RFO approximation:        -0.0000278157

	Back-transformation to cartesian coordinates...
	---------------------------------------------------
	 Iter        RMS(dx)        Max(dx)        RMS(dq) 
	---------------------------------------------------

Original q internal coordinates
	   1.8263764785
	   1.8263764785
	   1.8096839732

Target q internal coordinates
	   1.8302100110
	   1.8302100110
	   1.7922318063
	    1        5.2e-03        9.9e-03        6.1e-05
	    2        3.6e-05        7.5e-05        8.5e-10
	    3        4.2e-10        8.0e-10        1.3e-16
	---------------------------------------------
	Successfully converged to displaced geometry.

	---Internal Coordinate Step in ANG or DEG, aJ/ANG or AJ/DEG ---
	 ----------------------------------------------------------------------
	 Coordinate             Previous        Force       Change         New 
	 ----------             --------       ------       ------       ------
	 R(1,2)          =      0.966477     0.013091     0.002029     0.968505
	 R(1,3)          =      0.966477     0.013091     0.002029     0.968505
	 B(2,1,3)        =    103.687254    -0.000189    -0.999936   102.687318
	 ----------------------------------------------------------------------

  ==> Convergence Check <==

  Measures of convergence in internal coordinates in au.
  Criteria marked as inactive (o), active & met (*), and active & unmet ( ).
  ---------------------------------------------------------------------------------------------
   Step     Total Energy     Delta E     MAX Force     RMS Force      MAX Disp      RMS Disp   
  ---------------------------------------------------------------------------------------------
    Convergence Criteria    1.00e-06 *    3.00e-04 *             o    1.20e-03 *             o
  ---------------------------------------------------------------------------------------------
      2     -76.42061799   -9.34e-04      2.49e-03      1.94e-03 o    1.75e-02      1.06e-02 o  ~
  ---------------------------------------------------------------------------------------------

	Writing optimization data to binary file.
	Structure for next step:
	Cartesian Geometry (in Angstrom)
	    O     0.0000000000   0.0000000000  -0.0720748464
	    H     0.0000000000  -0.7563123493   0.5328999723
	    H     0.0000000000   0.7563123493   0.5328999723
			--------------------------
			 OPTKING Finished Execution 
			--------------------------

    Structure for next step:
    Molecular point group: c2v
    Full point group: C2v

    Geometry (in Angstrom), charge = 0, multiplicity = 1:

    O       
    H             1    0.968505
    H             1    0.968505      2  102.687318


  No DF_BASIS_SCF auxiliary basis selected, defaulting to cc-pvdz-jkfit


*** tstart() called on qcband
*** at Sat Apr 11 15:49:06 2015

	There are an even number of electrons - assuming singlet.
	Specify the multiplicity with the MULTP option in the
	input if this is incorrect


         ---------------------------------------------------------
                                   SCF
            by Justin Turney, Rob Parrish, and Andy Simmonett
                              RKS Reference
                        1 Threads,    250 MiB Core
         ---------------------------------------------------------

  ==> Geometry <==

    Molecular point group: c2v
    Full point group: C2v

    Geometry (in Angstrom), charge = 0, multiplicity = 1:

       Center              X                  Y                   Z       
    ------------   -----------------  -----------------  -----------------
           O          0.000000000000     0.000000000000    -0.067705674999
           H          0.000000000000    -0.756312291575     0.537269097517
           H          0.000000000000     0.756312291575     0.537269097517

  Running in c2v symmetry.

  Nuclear repulsion =    9.092006559816941

  Charge       = 0
  Multiplicity = 1
  Electrons    = 10
  Nalpha       = 5
  Nbeta        = 5

  ==> Algorithm <==

  SCF Algorithm Type is DF.
  DIIS enabled.
  MOM disabled.
  Fractional occupation disabled.
  Guess Type is READ.
  Energy threshold   = 1.00e-08
  Density threshold  = 1.00e-08
  Integral threshold = 0.00e+00

  ==> Primary Basis <==

  -AO BASIS SET INFORMATION:
    Name                   = CC-PVDZ
    Total number of shells = 12
    Number of primitives   = 32
    Number of AO           = 25
    Number of SO           = 24
    Maximum AM             = 2
    Spherical Harmonics    = TRUE

  -Contraction Scheme:
    Atom   Type   All Primitives // Shells:
   ------ ------ --------------------------
       1     O     17s 4p 1d // 3s 2p 1d 
       2     H     4s 1p // 2s 1p 
       3     H     4s 1p // 2s 1p 

  ==> AO Basis Functions <==

    [ CC-PVDZ ]
    spherical
    ****
    O   1
    S   8 1.00
                     11720.00000000           0.56970172
                      1759.00000000           1.05835210
                       400.80000000           1.77628106
                       113.70000000           2.59941189
                        37.03000000           3.02684600
                        13.27000000           2.22239433
                         5.02500000           0.64779543
                         1.01300000           0.01111870
    S   8 1.00
                     11720.00000000          -0.25243426
                      1759.00000000          -0.48049109
                       400.80000000          -0.78629966
                       113.70000000          -1.25416990
                        37.03000000          -1.49121792
                        13.27000000          -1.61083178
                         5.02500000          -0.54979838
                         1.01300000           0.78828221
    S   1 1.00
                         0.30230000           0.29056192
    P   3 1.00
                        17.70000000           3.24361935
                         3.85400000           2.56727965
                         1.04600000           1.11766932
    P   1 1.00
                         0.27530000           0.28424828
    D   1 1.00
                         1.18500000           2.21521850
    ****
    H   2
    S   3 1.00
                        13.01000000           0.16354842
                         1.96200000           0.27741754
                         0.44460000           0.31574931
    S   1 1.00
                         0.12200000           0.14712279
    P   1 1.00
                         0.72700000           0.95688138
    ****

  ==> DFT Potential <==

   => B3LYP Composite Functional <= 

    B3LYP Hybrid-GGA Exchange-Correlation Functional

[...]
    S   1 1.00
                         1.80177437           1.10837162
    S   1 1.00
                         0.80789711           0.60733335
    S   1 1.00
                         0.33864327           0.31638576
    P   1 1.00
                       120.16030921         567.07615295
    P   1 1.00
                        34.40962247         118.79275995
    P   1 1.00
                        12.58114861          33.77461859
    P   1 1.00
                         5.06638242          10.83459166
    P   1 1.00
                         2.03469271           3.46388627
    P   1 1.00
                         0.86092967           1.18208765
    P   1 1.00
                         0.36681357           0.40690856
    D   1 1.00
                        19.04306281         285.72540432
    D   1 1.00
                         5.80603811          35.74367890
    D   1 1.00
                         2.18918416           6.48490288
    D   1 1.00
                         0.87794614           1.31062436
    D   1 1.00
                         0.35623647           0.27036572
    F   1 1.00
                         2.49391479          11.50636308
    F   1 1.00
                         0.82491479           0.95471754
    ****
    H   2
    S   1 1.00
                         9.53024933           3.86579028
    S   1 1.00
                         1.91745062           1.16132355
    S   1 1.00
                         0.68424049           0.53618748
    S   1 1.00
                         0.28413256           0.27736448
    P   1 1.00
                         2.91332320           5.42532703
    P   1 1.00
                         1.26212054           1.90684824
    P   1 1.00
                         0.50199776           0.60230617
    D   1 1.00
                         2.31353291           7.14318502
    D   1 1.00
                         0.71290724           0.91036856
    ****

  ==> DFT Potential <==

   => B3LYP Composite Functional <= 

    B3LYP Hybrid-GGA Exchange-Correlation Functional

    P.J. Stephens et. al., J. Phys. Chem., 98, 11623-11627, 1994

    Points   =           5000
    Deriv    =              1
    GGA      =           TRUE
    Meta     =          FALSE

    X_LRC        =          FALSE
    X_Hybrid     =           TRUE
    X_Alpha      =   2.000000E-01
    X_Omega      =   0.000000E+00
    C_LRC        =          FALSE
    C_Hybrid     =          FALSE
    C_SCS_Hybrid =          FALSE
    C_Alpha      =   0.000000E+00
    C_SS_Alpha   =   0.000000E+00
    C_OS_Alpha   =   0.000000E+00

   => Exchange Functionals <=

    0.8000  B3_X
    0.2000    HF 

   => Correlation Functionals <=

    0.1900 VWN3RPA_C
    0.8100 LYP_C
    0.0000 DF-MP2 

   => B3_X Functional <=

    Becke88 GGA Exchange (B3LYP weighting)

    P.J. Stephens et. al., J. Phys. Chem., 98, 11623-11627, 1994

    GGA   =           TRUE
    Meta  =          FALSE
    LRC   =          FALSE
    Alpha =   1.000000E+00
    Omega =   0.000000E+00

    > Parameters <

          B88_a =   9.0000000000000002E-01
          B88_d =   4.1999999999999997E-03

   => VWN3RPA_C Functional <=

    VWN3 (RPA) LSDA Correlation

    S.H. Vosko, L. Wilk, and M. Nusair, Can. J. Phys., 58, 1200-1211, 1980

    GGA   =          FALSE
    Meta  =          FALSE
    LRC   =          FALSE
    Alpha =   1.900000E-01
    Omega =   0.000000E+00

    > Parameters <

          EcF_1 =   1.5545349999999999E-02
          EcF_2 =  -7.4329400000000001E-01
          EcF_3 =   2.0123100000000001E+01
          EcF_4 =   1.0157800000000000E+02
          EcP_1 =   3.1090699999999999E-02
          EcP_2 =  -4.0928599999999998E-01
          EcP_3 =   1.3071999999999999E+01
          EcP_4 =   4.2719799999999999E+01
              c =   6.2035049089939986E-01
         two_13 =   1.2599210498948732E+00

   => LYP_C Functional <=

    LYP Correlation

    B. Miehlich et. al., Chem. Phys. Lett., 157(3), 200-206 (1989)

    GGA   =           TRUE
    Meta  =          FALSE
    LRC   =          FALSE
    Alpha =   8.100000E-01
    Omega =   0.000000E+00

    > Parameters <

              A =   4.9180000000000001E-02
              B =   1.3200000000000001E-01
              C =   2.5330000000000003E-01
          CFext =   3.6462398978764774E+01
             Dd =   3.4899999999999998E-01

   => Molecular Quadrature <=

    Radial Scheme    =       TREUTLER
    Pruning Scheme   =           FLAT
    Nuclear Scheme   =       TREUTLER

    BS radius alpha  =              1
    Pruning alpha    =              1
    Radial Points    =             75
    Spherical Points =            302
    Total Points     =          66279
    Total Blocks     =            113
    Max Points       =            998
    Max Functions    =             24


  -Nuclear Gradient:
     Atom            X                  Y                   Z
    ------   -----------------  -----------------  -----------------
       1        0.000000000000     0.000000000000     2.983687513906
       2        0.000000000000     1.987424381640    -1.491843756953
       3        0.000000000000    -1.987424381640    -1.491843756953


  -Kinetic Gradient:
     Atom            X                  Y                   Z
    ------   -----------------  -----------------  -----------------
       1        0.000000000000     0.000000000000     0.938807384840
       2        0.000000000000     0.595059947709    -0.469403692420
       3        0.000000000000    -0.595059947709    -0.469403692420


  -Potential Gradient:
     Atom            X                  Y                   Z
    ------   -----------------  -----------------  -----------------
       1        0.000000000000    -0.000000000000    -8.738766452917
       2        0.000000000000    -5.559842014595     4.369383226458
       3        0.000000000000     5.559842014595     4.369383226458


  -Overlap Gradient:
     Atom            X                  Y                   Z
    ------   -----------------  -----------------  -----------------
       1        0.000000000000     0.000000000000     0.382066446283
       2        0.000000000000     0.216336638082    -0.191033223142
       3        0.000000000000    -0.216336638082    -0.191033223142


  -Coulomb Gradient:
     Atom            X                  Y                   Z
    ------   -----------------  -----------------  -----------------
       1        0.000000000000     0.000000000000     4.961589842768
       2       -0.000000000000     3.087418869031    -2.480794921384
       3       -0.000000000000    -3.087418869032    -2.480794921384


  -Exchange Gradient:
     Atom            X                  Y                   Z
    ------   -----------------  -----------------  -----------------
       1       -0.000000000000    -0.000000000000    -0.136899672783
       2        0.000000000000    -0.084431684329     0.068449836391
       3        0.000000000000     0.084431684330     0.068449836392


  -XC Gradient:
     Atom            X                  Y                   Z
    ------   -----------------  -----------------  -----------------
       1        0.000000000000     0.000000000000    -0.390402530080
       2       -0.000000000000    -0.241771966038     0.195193695635
       3        0.000000000000     0.241771966038     0.195193695635


  -Total Gradient:
     Atom            X                  Y                   Z
    ------   -----------------  -----------------  -----------------
       1        0.000000000000    -0.000000000000     0.000082532017
       2       -0.000000000000     0.000194171500    -0.000048835413
       3       -0.000000000000    -0.000194171500    -0.000048835414


*** tstop() called on qcband at Sat Apr 11 15:50:29 2015
Module time:
	user time   =       1.35 seconds =       0.02 minutes
	system time =       0.00 seconds =       0.00 minutes
	total time  =          1 seconds =       0.02 minutes
Total time:
	user time   =     103.41 seconds =       1.72 minutes
	system time =       0.90 seconds =       0.02 minutes
	total time  =        105 seconds =       1.75 minutes

-------------------------------------------------------------

  Computing second-derivative from gradients using projected, 
  symmetry-adapted, cartesian coordinates (fd_freq_1).

  6 gradients passed in, including the reference geometry.
  Generating complete list of displacements from unique ones.

	The atom map:
	 1 :    1   1   1   1
	 2 :    2   3   3   2
	 3 :    3   2   2   3

	Symmetric gradients
  ## Total Gradient (Symmetry 0) ##
  Irrep: 1 Size: 3 x 3

                 1            2            3

    1   -0.0000000    0.0000000   -0.0016052
    2    0.0000000   -0.0005263    0.0007953
    3    0.0000000    0.0005263    0.0007953



  ## Total Gradient (Symmetry 0) ##
  Irrep: 1 Size: 3 x 3

                 1            2            3

    1    0.0000000   -0.0000000    0.0017761
    2    0.0000000    0.0009227   -0.0008959
    3    0.0000000   -0.0009227   -0.0008959



  ## Total Gradient (Symmetry 0) ##
  Irrep: 1 Size: 3 x 3

                 1            2            3

    1   -0.0000000    0.0000000   -0.0012736
    2    0.0000000   -0.0011648    0.0006290
    3   -0.0000000    0.0011648    0.0006290



  ## Total Gradient (Symmetry 0) ##
  Irrep: 1 Size: 3 x 3

                 1            2            3

    1   -0.0000000    0.0000000    0.0014584
    2   -0.0000000    0.0015646   -0.0007366
    3    0.0000000   -0.0015646   -0.0007366



Characters for irrep 3
   1.0  -1.0  -1.0   1.0
	Operation 2 takes plus displacements of irrep B2 to minus ones.
	All mass-weighted gradients
  ## Total Gradient (Symmetry 0) ##
  Irrep: 1 Size: 3 x 3

                 1            2            3

    1   -0.0000000    0.0000000   -0.0004014
    2    0.0000000   -0.0005243    0.0007922
    3    0.0000000    0.0005243    0.0007922



  ## Total Gradient (Symmetry 0) ##
  Irrep: 1 Size: 3 x 3

                 1            2            3

    1    0.0000000   -0.0000000    0.0004441
    2    0.0000000    0.0009192   -0.0008924
    3    0.0000000   -0.0009192   -0.0008924



  ## Total Gradient (Symmetry 0) ##
  Irrep: 1 Size: 3 x 3

                 1            2            3

    1   -0.0000000    0.0000000   -0.0003184
    2    0.0000000   -0.0011602    0.0006266
    3   -0.0000000    0.0011602    0.0006266



  ## Total Gradient (Symmetry 0) ##
  Irrep: 1 Size: 3 x 3

                 1            2            3

    1   -0.0000000    0.0000000    0.0003647
    2   -0.0000000    0.0015585   -0.0007337
    3    0.0000000   -0.0015585   -0.0007337



  ## Total Gradient (Symmetry 0) ##
  Irrep: 1 Size: 3 x 3

                 1            2            3

    1   -0.0000000   -0.0007516    0.0000248
    2    0.0000000    0.0016990   -0.0012533
    3    0.0000000    0.0012929    0.0011396



  Irrep: 1 Size: 3 x 3

                 1            2            3

    1    0.0000000    0.0007516    0.0000248
    2   -0.0000000   -0.0012929    0.0011396
    3   -0.0000000   -0.0016990   -0.0012533



Gradients in B-matrix coordinates
 disp 0:   -0.0011901029  -0.0007414212
 disp 1:    0.0013379360   0.0012998813
 disp 2:   -0.0009415838  -0.0016408196
 disp 3:    0.0010998149   0.0022040561

	Force Constants for irrep A1 in mass-weighted, symmetry-adapted cartesian coordinates.

                   0                     1        

    0      0.252803882051063     0.204130252945545
    1      0.204139872987495     0.384487574310443

	Normal coordinates (mass-weighted) for irrep A1:

           1           2

    1   0.0000000   0.0000000
    2   0.0000000   0.0000000
    3   0.1969280  -0.2704334
    4   0.0000000   0.0000000
    5   0.5716121   0.4162446
    6  -0.3922617   0.5386774
    7   0.0000000   0.0000000
    8  -0.5716121  -0.4162446
    9  -0.3922617   0.5386774

        0.5331410   0.1041504
Gradients in B-matrix coordinates
 disp 0:   -0.0028113300
 disp 1:    0.0028113300

	Force Constants for irrep B2 in mass-weighted, symmetry-adapted cartesian coordinates.

                   0        

    0      0.562266001571473

	Normal coordinates (mass-weighted) for irrep B2:

           1

    1   0.0000000
    2   0.2671398
    3   0.0000000
    4   0.0000000
    5  -0.5321168
    6   0.4256406
    7   0.0000000
    8  -0.5321168
    9  -0.4256406

        0.5622660

	  Irrep      Harmonic Frequency   
	                  (cm-1)          
	-----------------------------------------------
	     A1         1658.9557  
	     A1         3753.4042  
	     B2         3854.5634  
	-----------------------------------------------

	Normal Modes (mass-weighted).
	Molecular mass is   18.01056 amu.
	Frequencies in cm^-1; force constants in au.

   Frequency:       1658.96
   Force constant:   0.1042
	     X       Y       Z           mass	
  O 	   0.000   0.000  -0.270      15.994915
  H 	   0.000   0.416   0.539       1.007825
  H 	   0.000  -0.416   0.539       1.007825

   Frequency:       3753.40
   Force constant:   0.5331
	     X       Y       Z           mass	
  O 	   0.000   0.000   0.197      15.994915
  H 	   0.000   0.572  -0.392       1.007825
  H 	   0.000  -0.572  -0.392       1.007825

   Frequency:       3854.56
   Force constant:   0.5623
	     X       Y       Z           mass	
  O 	   0.000   0.267   0.000      15.994915
  H 	   0.000  -0.532   0.426       1.007825
  H 	   0.000  -0.532  -0.426       1.007825

	Full force constant matrix in mass-weighted SALCS.

                   0                     1                     2        

    0      0.252803882051063     0.204139872987495     0.000000000000000
    1      0.204139872987495     0.384487574310443     0.000000000000000
    2      0.000000000000000     0.000000000000000     0.562266001571473

	Force Constants in mass-weighted cartesian coordinates.

                   0                     1                     2                     3                     4        

    0      0.000000000000000     0.000000000000000     0.000000000000000     0.000000000000000     0.000000000000000
    1      0.000000000000000     0.040125357348586     0.000000000000000     0.000000000000000    -0.079925858548234
    2      0.000000000000000     0.000000000000000     0.028292514422506     0.000000000000000     0.048289948921412
    3      0.000000000000000     0.000000000000000     0.000000000000000     0.000000000000000     0.000000000000000
    4      0.000000000000000    -0.079925858548234     0.048289948921412     0.000000000000000     0.351448421999365
    5      0.000000000000000     0.063932754540687    -0.056355971762749     0.000000000000000    -0.223536848404624
    6      0.000000000000000     0.000000000000000     0.000000000000000     0.000000000000000     0.000000000000000
    7      0.000000000000000    -0.079925858548234    -0.048289948921412     0.000000000000000    -0.033039152311079
    8      0.000000000000000    -0.063932754540687    -0.056355971762749     0.000000000000000     0.031158966594667

                   5                     6                     7                     8        

    0      0.000000000000000     0.000000000000000     0.000000000000000     0.000000000000000
    1      0.063932754540687     0.000000000000000    -0.079925858548234    -0.063932754540687
    2     -0.056355971762749     0.000000000000000    -0.048289948921412    -0.056355971762749
    3      0.000000000000000     0.000000000000000     0.000000000000000     0.000000000000000
    4     -0.223536848404624     0.000000000000000    -0.033039152311079     0.031158966594667
    5      0.214121371081579     0.000000000000000    -0.031158966594667     0.010389996546978
    6      0.000000000000000     0.000000000000000     0.000000000000000     0.000000000000000
    7     -0.031158966594667     0.000000000000000     0.351448421999365     0.223536848404624
    8      0.010389996546978     0.000000000000000     0.223536848404624     0.214121371081579

	Force Constants in cartesian coordinates.

                   0                     1                     2                     3                     4        

    0      0.000000000000000     0.000000000000000     0.000000000000000     0.000000000000000     0.000000000000000
    1      0.000000000000000     0.641801664869960     0.000000000000000     0.000000000000000    -0.320900832434981
    2      0.000000000000000     0.000000000000000     0.452536352560658     0.000000000000000     0.193883244904678
    3      0.000000000000000     0.000000000000000     0.000000000000000     0.000000000000000     0.000000000000000
    4      0.000000000000000    -0.320900832434981     0.193883244904678     0.000000000000000     0.354198517172461
    5      0.000000000000000     0.256688817919754    -0.226268176280330     0.000000000000000    -0.225286031412216
    6      0.000000000000000     0.000000000000000     0.000000000000000     0.000000000000000     0.000000000000000
    7      0.000000000000000    -0.320900832434981    -0.193883244904678     0.000000000000000    -0.033297684737479
    8      0.000000000000000    -0.256688817919754    -0.226268176280330     0.000000000000000     0.031402786507539

                   5                     6                     7                     8        

    0      0.000000000000000     0.000000000000000     0.000000000000000     0.000000000000000
    1      0.256688817919754     0.000000000000000    -0.320900832434981    -0.256688817919754
    2     -0.226268176280330     0.000000000000000    -0.193883244904678    -0.226268176280330
    3      0.000000000000000     0.000000000000000     0.000000000000000     0.000000000000000
    4     -0.225286031412216     0.000000000000000    -0.033297684737479     0.031402786507539
    5      0.215796877677165     0.000000000000000    -0.031402786507539     0.010471298603165
    6      0.000000000000000     0.000000000000000     0.000000000000000     0.000000000000000
    7     -0.031402786507539     0.000000000000000     0.354198517172461     0.225286031412216
    8      0.010471298603165     0.000000000000000     0.225286031412216     0.215796877677165

-------------------------------------------------------------

            *********************************************
            * Thermodynamic Analysis by R.A. King, 2012 *
            *********************************************

    Full point group: Cnv (C2v)

    Data used to determine thermochemical information:
    Temperature (K):          298.15
    Pressure (Pa)  :       101325.00
    Multiplicity   :               1
    Rotor type     :  ASYMMETRIC_TOP
    Rotational symmetry number :   2

    Rotational constants:
           wavenumbers          GHz
        A:   25.730737    771.38810
        B:   14.621066    438.32853
        C:    9.323271    279.50464

    Nuclear masses:
         15.994915  1.007825  1.007825

    No.    Vib. Freq. (cm^-1)      Vib. Temp. (K)
      1              1658.956            2386.864
      2              3753.404            5400.305
      3              3854.563            5545.850

    Component        Thermal Energy             Cv              S
                           kcal/mol    cal/(mol K)    cal/(mol K) 
    Electronic                0.000          0.000          0.000
    Translational             0.889          2.981         34.608
    Rotational                0.889          2.981         10.529
    Vibrational              13.249          0.043          0.006
    Total                    15.027          6.004         45.144

                               cm^(-1)              au        kcal/mol
    Zero-point energy        4633.4617      0.02111160         13.2477

    Energies in Hartree/particle:   Correction            Total
    Energy (0 K)                    0.02111160     -76.39953365
    Internal energy                 0.02394668     -76.39669857
    Enthalpy                        0.02489087     -76.39575438
    Gibbs Free Energy               0.00344165     -76.41720360

*** PSI4 exiting successfully. Buy a developer a beer!
