 --invoking executable xjoda


   *************************************************************************
         <<<     CCCCCC     CCCCCC   |||     CCCCCC     CCCCCC   >>>
       <<<      CCC        CCC       |||    CCC        CCC         >>>
      <<<      CCC        CCC        |||   CCC        CCC            >>>
    <<<        CCC        CCC        |||   CCC        CCC              >>>
      <<<      CCC        CCC        |||   CCC        CCC            >>>
       <<<      CCC        CCC       |||    CCC        CCC         >>>
         <<<     CCCCCC     CCCCCC   |||     CCCCCC     CCCCCC   >>>
   *************************************************************************

     ****************************************************************
     * CFOUR Coupled-Cluster techniques for Computational Chemistry *
     ****************************************************************
 

   Department of Chemistry                Institut fuer Physikalische Chemie
   University of Texas at Austin          Universitaet Mainz
   Austin, TX  78712, USA                 D-55099 Mainz, Germany
 
                       Version 1.01
 
                     schem1a1.systems.smu.edu                          
                     Mon Jan  6 12:15:35 CST 2014                      
                     integer*8 version is running
 
    -------------------------------------------------------------------
                    Input from ZMAT file
    -------------------------------------------------------------------
 
 FREQ at CCSD(T)/cc-pVTZ level                                                  
 H                                                                              
 O 1 R1                                                                         
 H 2 R1 1 A1                                                                    
                                                                                
 R1 =   0.9594259177                                                            
 A1 = 103.5821726176                                                            
                                                                                
 *ACES2(CALC=CCSD(T),BASIS=PVTZ                                                 
 FROZEN_CORE=ON                                                                 
 VIB=ANALYTIC                                                                   
 ABCDTYPE=AOBASIS                                                               
 MEM_UNIT=GB,MEMORY=6)                                                          
                                                                                
                                                                                
                                                                                
 
    -------------------------------------------------------------------
                    CFOUR Control Parameters 
    -------------------------------------------------------------------
        External           Internal           Value            Units
          Name               Name
    -------------------------------------------------------------------
       PRINT                IPRNT               0               ***   
       CALCLEVEL            ICLLVL           CCSD(T)    [ 22]   ***   
       DERIV_LEV            IDRLVL            SECOND    [  2]   ***   
       CC_CONV              ICCCNV          10D-  7             ***   
       SCF_CONV             ISCFCV          10D-  7             ***   
       XFORM_TOL            IXFTOL          10D- 11             ***   
       CC_MAXCYC            ICCCYC             50              cycles 
       LINDEP_TOL           ILINDP              8               ***   
       RDO                  IRDOFM              ON      [  1]   ***   
  
       SCF_EXTRAPO          IRPP                ON      [  1]   ***   
       REFERENCE            IREFNC             RHF      [  0]   ***   
       CC_EXPORDER          ICCEOR              5               ***   
       TAMP_SUM             IEVERY              5               ***   
       NTOP_TAMP            ITOPT2             15               ***   
       CCORBOPT             ICCORB             OFF      [  0] x 0.01  
       SCF_MAXCYC           ISCFCY            150              cycles 
       OCCUPATION           IOCCU   ESTIMATED BY SCF 
       PROPS                IPROPS             OFF      [  0]   ***   
       RELAX_DENS           IRDENS              ON      [  1]   ***   
  
       SCF_EXPORDE          IRPPOR              6               ***   
       CC_EXTRAPOL          ICCEXT             DIIS     [  1]   ***   
       BRUECKNER            IBRKNR             OFF      [  0]   ***   
       XFIELD               IXEFLD              0             x 10-6  
       YFIELD               IYEFLD              0             x 10-6  
       ZFIELD               IZEFLD              0             x 10-6  
       SAVE_INTS            ISVINT             OFF      [  0]   ***   
       DROPMO               IDRPMO      NONE         
       CHARGE               ICHRGE              0               ***   
       MULTIPLICTY          IMULTP              1               ***   
  
       CPHF_CONVER          ICPHFT          10D- 16             ***   
       CPHF_MAXCYC          ICPHFC             64              cycles 
       INCORE               INCORE             OFF      [  0]   ***   
       MEMORY_SIZE          IMEMSZ         750000000           words  
       FILE_RECSIZ          IFLREC              4096           words  
       NON-HF               INONHF             OFF      [  0]   ***   
       ORBITALS             IORBTP           STANDARD   [  0]   ***   
  
       SCF_EXPSTAR          IRPPLS              8               ***   
       LOCK_ORBOCC          ILOCOC             OFF      [  0]   ***   
       HBAR                 IHBAR              OFF      [  0]   ***   
       CACHE_RECS           ICHREC             10               ***   
       GUESS                IGUESS            MOREAD    [  0]   ***   
       JODA_PRINT           IJPRNT              0               ***   
       GEO_METHOD           INR            SINGLE_POINT [  5]   ***   
       GEO_CONV             ICONTL              5              H/bohr 
       EIGENVECTOR          IVEC                1               ***   
  
       NEGEVAL              IDIE             ABORT      [  0]   ***   
       CURVILINEAR          ICURVY            OFF       [  0]   ***   
       SCALE_ON             ISTCRT              0               ***   
       GEO_MAXSTEP          IMXSTP            300            millibohr
       VIBRATION            IVIB             ANALYTIC   [  1]   ***   
       EVAL_HESS            IRECAL              0            # of cyc.
       INTEGRALS            INTTYP             VMOL     [  1]   ***   
       FD_STEPSIZE          IDISFD              0            10-4 bohr
       POINTS               IGRDFD              0               ***   
       CONTRACTION          ICNTYP          GENERAL     [  1]   ***   
  
       SYMMETRY             ISYM             ON         [  0]   ***   
       BASIS                IBASIS         PVTZ         [ 14]   ***   
       SPHERICAL            IDFGHI             ON       [  1]   ***   
       RESET_FLAGS          IRESET             OFF      [  0]   ***   
       PERT_ORB             IPTORB         CANONICAL    [  1]   ***   
       GENBAS_1             IGNBS1              0               ***   
       GENBAS_2             IGNBS2              0               ***   
       GENBAS_3             IGNBS3              0               ***   
       COORDINATES          ICOORD         INTERNAL     [  0]   ***   
       SYM_CHECK            ISYMCK         OVERRIDE     [  1]   ***   
  
       SCF_PRINT            ISCFPR              0               ***   
       ECP                  IECP           OFF          [  0]   ***   
       RESTART_CC           ICCRES         OFF          [  0]   ***   
       TRANS_INV            ITRAIN         USE          [  0]   ***   
       HFSTABILITY          ISTABL         OFF          [  0]   ***   
       ROT_EVEC             ROTVEC              0               ***   
       BRUCK_CONV           IBRTOL          10D-  4             ***   
       UNITS                IUNITS         ANGSTROM     [  0]   ***   
       FD_USEGROUP          IFDGRP         FULL         [  0]   ***   
  
       FD_PROJECT           IFDPRJ         ON           [  0]   ***   
       FD_CALTYPE           IFDCAL         GRADONLY     [  0]   ***   
       VTRAN                IVTRAN         PARTIAL      [  2]   ***   
       HF2_FILE             IHF2Fl         USE          [  1]   ***   
       SUBGROUP             ISUBGP         DEFAULT      [  0]   ***   
       SUBGRPAXIS           ISBXYZ         X            [  0]   ***   
       EXCITE               IEXCIT         NONE         [  0]   ***   
       LINEQ_CONV           IZTACN          10D-  7           cycles  
  
       TREAT_PERT           ITREAT         SIMULTANEOUS [  0]   ***   
       ESTATE_PROP          IEXPRP         OFF          [  0]   ***   
       GEO_MAXCYC           IOPTCY             50               ***   
       ABCDTYPE             IABCDT         AOBASIS      [  2]   ***   
       AO_LADDERS           IAOLAD         SINGLEPASS   [  1]   ***   
       FOCK                 IFOCK          AO           [  1]   ***   
       ESTATE_MAXC          IEXMXC             20               ***   
       ESTATE_CONV          IEXTOL          10D-  5             ***   
       DIRECT               IDIRCT         OFF          [  0]   ***   
  
       GAMMA_ABCD           IGABCD         DIRECT       [  1]   ***   
       LINEQ_TYPE           ILTYPE         DIIS         [  1]   ***   
       LINEQ_MAXCY          ILMAXC             50               ***   
       TRANGRAD             IRESRM         OFF          [  0]   ***   
       PSI                  IPSI           OFF          [  0]   ***   
       GAMMA_ABCI           IGABCI         STORE        [  0]   ***   
       ESTATE_DIAG          IEXDIG         ITERATIVE    [  0]   ***   
       FC_FIELD             IFINFC              0             x 10-6  
       SD_FIELD             IFINSD              0             x 10-6  
       DIFF_TYPE            IDIFTY         RELAXED      [  0]   ***   
  
       LINEQ_EXPOR          ILMAXD              5               ***   
       FINITE_PERT          IFIPER              0             x 10-6  
       ANHARMONIC           IANHAR         OFF          [  0]   ***   
       CC_PROGRAM           ICCPRO         VCC          [  0]   ***   
       OPEN-SHELL           IOPEN          SPIN-ORBITAL [  0]   ***   
       UIJ_THRESHO          IUIJTH             25               ***   
       SCF_DAMPING          IDAMP               0             x 10-3  
       PROP_INTEGR          IINTYP         INTERNAL     [  0]   ***   
       ANH_SYMMETR          IANHSM         ABELIAN      [  0]   ***   
       ANH_ALGORIT          IANALG         STANDARD     [  0]   ***   
  
       EOM_NONIT            EOMNON         OFF          [  0]   ***   
       VIB_ALGORIT          IGEALG         STANDARD     [  0]   ***   
       ANH_DERIVAT          IANDER         SECOND       [  1]   ***   
       SPINROTATIO          ISRCON         OFF          [  0]   ***   
       CIS_CONV             ICISTL              5               ***   
       ANH_STEPSIZ          ICUBST             50000          x 10-6  
       SPIN_FLIP            ISPFLP         OFF          [  0]   ***   
       GRID                 IGRID          OFF          [  0]   ***   
  
       DBOC                 IDBOC          OFF          [  0]   ***   
       EOMFOLLOW            IEOMSR         ENERGY       [  0]   ***   
       T3_EXTRAPOL          IT3EXT         OFF          [  0]   ***   
       ESTATE_LOCK          IESLOC         OFF          [  0]   ***   
       UNOS                 IUNOS          OFF          [  0]   ***   
       FREQ_ALGORI          IVIALG         STANDARD     [  0]   ***   
       RELATIVIST           IRELAT         OFF          [  0]   ***   
       FROZEN_CORE          IFROCO         ON           [  1]   ***   
       EXCITATION           IEXCIT              0               ***   
       INPUT_MRCC           IMRCC          ON           [  1]   ***   
  
       GIAO                 IGIAO          OFF          [  1]   ***   
       EOM_NSING            IEOMSI          10D-  0             ***   
       EOM_NTRIP            IEOMTR          10D-  0             ***   
       EOM_NSTATES          IMRCCD         DAVIDSON     [  0]   ***   
       DIAG_MRCC            IEOMST          10D-  0             ***   
       NEWNORM              INEWNO         OFF          [  0]   ***   
       TESTSUITE            ITESTS         OFF          [  0]   ***   
       BUFFERSIZE           IBUFFS            600               ***   
       SPINORBIT            ISOCAL         OFF          [  0]   ***   
       DCT                  IDCT           OFF          [  0]   ***   
  
       PARALLEL             IPARAL         ON           [  1]   ***   
       PARA_PRINT           IPPRIN              0               ***   
       COMM_SIZE            IPSIZE            ***               ***   
       PARA_INT             IPINTS         ON           [  1]   ***   
       RAMAN_INT            IRAMIN         OFF          [  0]   ***   
       RAMAN_ORB            IRAMRE         UNRELAXED    [  0]   ***   
       BREIT                IBREIT         OFF          [  0]   ***   
       MEM_UNIT             IMEMU          GB           [  3]   ***   
       SPIN_ORBIT           ISPORB         OFF          [  0]   ***   
       GENBAS_4             IGNBS4              0               ***   
  
       SPIN_SCAL            ISCSMP         OFF          [  0]   ***   
       GRID_ALGO            IGALGO         SERIAL       [  0]   ***   
       VIBPHASE             ISETPH         STANDARD     [  0]   ***   
       SEQUENCE             ISEQUE         OFF          [  0]   ***   
       HESS_TYPE            IHESTP         SCF          [  0]   ***   
       CONTINUUM            ICONTU         NONE         [  0]   ***   
       SCF_NOSTOP           ISCFST         OFF          [  0]   ***   
       CONSTANT             ICONST         OLD          [  1]   ***   
  
       EOM_MRCC             IMRCCE         OLD          [  0]   ***   
       EOM_ORDER            IEXORD         ENERGY       [  0]   ***   
       GIMIC                IGIMIC         OFF          [  0]   ***   
    -------------------------------------------------------------------
   3 entries found in Z-matrix 
   Job Title : FREQ at CCSD(T)/cc-pVTZ level                                                   
   There are  2 unique internal coordinates.
   Of these,  0 will be optimized.
   User supplied Z-matrix: 
--------------------------------------------------------------------------------
       SYMBOL    BOND      LENGTH    ANGLE     ANGLE     DIHED     ANGLE
                  TO      (ANGST)    WRT      (DEG)      WRT      (DEG)
--------------------------------------------------------------------------------
        H    
        O          1         R1   
        H          2         R1         1        A1   
                  *Initial values for internal coordinates* 
                      Name             Value
                        R1              0.9594259177
                        A1            103.5821726176
--------------------------------------------------------------------------------
  1  H          1     1.00783
  2  O          8    15.99491
  3  H          1     1.00783
   Rotational constants (in cm-1): 
          9.4921213219            14.7155989763            26.7412364041
   Rotational constants (in MHz): 
     284566.6781397470        441162.6206098725        801682.2114680710
********************************************************************************
   The full molecular point group is C2v .
   The largest Abelian subgroup of the full molecular point group is C2v .
   The computational point group is C2v .
********************************************************************************
--------------------------------------------------------------------------------
   Analysis of internal coordinates specified by Z-matrix 
--------------------------------------------------------------------------------
   *The nuclear repulsion energy is    9.17587 a.u.
   *There are   2 degrees of freedom within the tot. symm. molecular subspace.
   *Z-matrix requests optimization of   0 coordinates.
   *The optimization is constrained.
   *The following   2 parameters can have non-zero 
    derivatives within the totally symmetric subspace:
             A1   [ 3]  R1   [ 2]
   *The following   0 parameters are to be optimized:

   *The following coordinates must be varied in an  unconstrained optimization.
             A1   [ 3]  R1   [ 2]
--------------------------------------------------------------------------------
 ----------------------------------------------------------------
 Z-matrix   Atomic            Coordinates (in bohr)
  Symbol    Number           X              Y              Z
 ----------------------------------------------------------------
     H         1         0.00000000    -1.42462544     0.99592406
     O         8         0.00000000     0.00000000    -0.12550454
     H         1         0.00000000     1.42462544     0.99592406
 ----------------------------------------------------------------
   Interatomic distance matrix (Angstroms) 
 
                 H             O             H    
                [ 1]        [ 2]        [ 3]
  H    [ 1]     0.00000
  O    [ 2]     0.95943     0.00000
  H    [ 3]     1.50776     0.95943     0.00000
   Rotational constants (in cm-1): 
          9.4921213219            26.7412364041            14.7155989763
   Rotational constants (in MHz): 
     284566.6781397471        801682.2114680713        441162.6206098725
  There is   1 frozen-core orbital.
  There are   58 basis functions.
                0.38 seconds walltime passed
 --executable xjoda finished with status            0
 --invoking executable xvmol
 Serial version of molecule started
 
    -------------------------------------------------------------------
                    Input from MOL file
    -------------------------------------------------------------------
 INTGRL        1    0    1    0    0    0    0    0    0                        
          *** CFOUR Program System (Release V0.1) ***                           
 FREQ at CCSD(T)/cc-pVTZ level                                                  
     2    2 X  Y       0.10E-08              0    0                             
    9999.00      3.00                                                           
           1.00000000    1    3    1    1    1                                  
 H #1   0.000000000000000  -1.424625437354358   0.995924057483314               
     5    3                                                                     
    33.8700000000000       6.068000000000000E-003  0.000000000000000E+000       
   0.000000000000000E+000                                                       
    5.09500000000000       4.530800000000000E-002  0.000000000000000E+000       
   0.000000000000000E+000                                                       
    1.15900000000000       0.202822000000000       0.000000000000000E+000       
   0.000000000000000E+000                                                       
   0.325800000000000       0.503903000000000        1.00000000000000            
   0.000000000000000E+000                                                       
   0.102700000000000       0.383421000000000       0.000000000000000E+000       
    1.00000000000000                                                            
     2    2                                                                     
    1.40700000000000        1.00000000000000       0.000000000000000E+000       
   0.388000000000000       0.000000000000000E+000   1.00000000000000            
     1    1                                                                     
    1.05700000000000        1.00000000000000                                    
           8.00000000    1    4    1    1    1    1                             
 O #2   0.000000000000000   0.000000000000000  -0.125504539575084               
    10    4                                                                     
    15330.0000000000       5.080000000000000E-004 -1.150000000000000E-004       
   0.000000000000000E+000  0.000000000000000E+000                               
    2299.00000000000       3.929000000000000E-003 -8.950000000000000E-004       
   0.000000000000000E+000  0.000000000000000E+000                               
    522.400000000000       2.024300000000000E-002 -4.636000000000000E-003       
   0.000000000000000E+000  0.000000000000000E+000                               
    147.300000000000       7.918100000000000E-002 -1.872400000000000E-002       
   0.000000000000000E+000  0.000000000000000E+000                               
    47.5500000000000       0.230687000000000      -5.846300000000000E-002       
   0.000000000000000E+000  0.000000000000000E+000                               
    16.7600000000000       0.433118000000000      -0.136463000000000            
   0.000000000000000E+000  0.000000000000000E+000                               
    6.20700000000000       0.350260000000000      -0.175740000000000            
   0.000000000000000E+000  0.000000000000000E+000                               
    1.75200000000000       4.272800000000000E-002  0.160934000000000            
    1.00000000000000       0.000000000000000E+000                               
   0.688200000000000      -8.154000000000000E-003  0.603418000000000            
   0.000000000000000E+000  0.000000000000000E+000                               
   0.238400000000000       2.381000000000000E-003  0.378765000000000            
   0.000000000000000E+000   1.00000000000000                                    
     5    3                                                                     
    34.4600000000000       1.592800000000000E-002  0.000000000000000E+000       
   0.000000000000000E+000                                                       
    7.74900000000000       9.974000000000000E-002  0.000000000000000E+000       
   0.000000000000000E+000                                                       
    2.28000000000000       0.310492000000000       0.000000000000000E+000       
   0.000000000000000E+000                                                       
   0.715600000000000       0.491026000000000        1.00000000000000            
   0.000000000000000E+000                                                       
   0.214000000000000       0.336337000000000       0.000000000000000E+000       
    1.00000000000000                                                            
     2    2                                                                     
    2.31400000000000        1.00000000000000       0.000000000000000E+000       
   0.645000000000000       0.000000000000000E+000   1.00000000000000            
     1    1                                                                     
    1.42800000000000        1.00000000000000                                    
 FINISH                                                                         
 
    -------------------------------------------------------------------
 
 One- and two-electron integrals over symmetry-adapted AOs are calculated.

  Spherical harmonics are used.
  
  Integrals less than  0.10E-13 are neglected.

  Nuclear repulsion energy :    9.1758650877 a.u.
  required memory for a1 array                5020257  words 
  required memory for a2 array                2070308  words 
 basis number:   1    15
 basis number:   8    35
  @GETMEM-I,   Allocated      69 MB of main memory.
  @MOLECU-I, One electron integrals required         0.02000 seconds.
  @TWOEL-I,      47637 integrals of symmetry type  I I I I
  @TWOEL-I,     139313 integrals of symmetry type  I J I J
  @TWOEL-I,      78167 integrals of symmetry type  I I J J
  @TWOEL-I,      84950 integrals of symmetry type  I J K L
  @TWOEL-I, Total number of 2-e integrals     350067.
  @MOLECU-I, Two electron integrals required         0.24000 seconds.
  @CHECKOUT-I, Total execution time :       0.2700 seconds.
                0.38 seconds walltime passed
 --executable xvmol finished with status            0
 --invoking executable xvmol2ja
  @GETMEM-I,   Allocated    5722 MB of main memory.
  @CHECKOUT-I, Total execution time :       0.0100 seconds.
                0.12 seconds walltime passed
 --executable xvmol2ja finished with status            0
 --invoking executable xvscf
 NSOSCF                     0
  There are   58 functions in the AO basis.

  There are 4 irreducible representations.

       Irrep        # of functions
         1                 23
         2                 11
         3                 17
         4                  7


  Parameters for SCF calculation: 
        SCF reference function:  RHF  
  Maximum number of iterations:  150
     Full symmetry point group: C2v 
     Computational point group: C2v 
        Initial density matrix: MOREAD                 
     SCF convergence tolerance: 10**(- 7)
  DIIS convergence acceleration:  ON
          Latest start for DIIS:   8
                     DIIS order:   6

  Memory information:     179852 words required.
  Fock matrices are constructed from AO integral file.
  @GETMEM-I,   Allocated       1 MB of main memory.
  Initialization and symmetry analysis required      0.000 seconds.

  @INITGES-I, Occupancies from core Hamiltonian:

          Alpha population by irrep:   3    1    1    0
           Beta population by irrep:   3    1    1    0


 total no. of electrons in initial guess :  0.000000000000000E+000
  --------------------------------------------------------------------
  Iteration         Total Energy            Largest Density Difference
  --------------------------------------------------------------------
       0             9.175865087715257              0.0000000000D+00
   current occupation vector 
     3  1  1  0
     3  1  1  0
       1           -61.402597664624260              0.1204614585D+02
   current occupation vector 
     3  1  1  0
     3  1  1  0
       2           -66.688578420347298              0.1199325270D+02
   current occupation vector 
     3  0  2  0
     3  0  2  0
       3           -71.741596137216533              0.1012610880D+02
   current occupation vector 
     3  1  1  0
     3  1  1  0
       4           -70.195105312233963              0.8651575028D+01
   current occupation vector 
     3  0  2  0
     3  0  2  0
       5           -73.092420959288461              0.8626426580D+01
   current occupation vector 
     3  1  1  0
     3  1  1  0
       6           -72.893482270221313              0.6396938283D+01
   current occupation vector 
     4  0  1  0
     4  0  1  0
       7           -74.299592025867753              0.6466001243D+01
   current occupation vector 
     3  1  1  0
     3  1  1  0
       8           -75.114494319127729              0.3092003685D+01
   current occupation vector 
     3  1  1  0
     3  1  1  0
       9           -76.040212993062894              0.1042852259D+01
   current occupation vector 
     3  1  1  0
     3  1  1  0
      10           -76.056727683984661              0.1457194986D+00
   current occupation vector 
     3  1  1  0
     3  1  1  0
      11           -76.056938241140912              0.1220840504D-01
   current occupation vector 
     3  1  1  0
     3  1  1  0
      12           -76.056945605439083              0.4655436549D-02
   current occupation vector 
     3  1  1  0
     3  1  1  0
      13           -76.056946161385113              0.1238262018D-02
   current occupation vector 
     3  1  1  0
     3  1  1  0
      14           -76.056946192753458              0.2918408060D-03
   current occupation vector 
     3  1  1  0
     3  1  1  0
      15           -76.056946193044610              0.2497856596D-04
   current occupation vector 
     3  1  1  0
     3  1  1  0
      16           -76.056946193049839              0.5386021690D-05
   current occupation vector 
     3  1  1  0
     3  1  1  0
      17           -76.056946193050209              0.1573705964D-05
   current occupation vector 
     3  1  1  0
     3  1  1  0
      18           -76.056946193050322              0.2641212278D-06
   current occupation vector 
     3  1  1  0
     3  1  1  0

  SCF has converged.

 save density matrix on hard disk
 total electron number:   10.0000000000000     
     E(SCF)=       -76.056946193050265              0.3697166906D-07

  Eigenvector printing suppressed.

 @PUTMOS-I, Writing converged MOs to NEWMOS. 
 @PUTMOS-I, Symmetry   1 Full   5 Partial   3
 @PUTMOS-I, Symmetry   2 Full   2 Partial   3
 @PUTMOS-I, Symmetry   3 Full   4 Partial   1
 @PUTMOS-I, Symmetry   4 Full   1 Partial   3


 
  ORBITAL EIGENVALUES (ALPHA)  (1H = 27.2113838 eV)

       MO #        E(hartree)               E(eV)           FULLSYM    COMPSYM
       ----   --------------------   --------------------   -------   ---------
    1     1         -20.5555848492        -559.3459089662      A1        A1 (1)
    2     2          -1.3452404008         -36.6058528752      A1        A1 (1)
    3    35          -0.7068046986         -19.2331339384      B2        B2 (3)
    4     3          -0.5791550872         -15.7596113684      A1        A1 (1)
    5    24          -0.5046075622         -13.7310700538      B1        B1 (2)
  +++++++++++++++++++++++++++++++++++++++++++++++++++++++++++++++++++++++++++++
    6     4           0.1418637621           3.8603092801      A1        A1 (1)
    7    36           0.2040461239           5.5523773952      B2        B2 (3)
    8    37           0.5417480381          14.7417137984      B2        B2 (3)
    9     5           0.6043545363          16.4453232514      A1        A1 (1)
   10     6           0.6679734914          18.1764830560      A1        A1 (1)
   11    25           0.7872113969          21.4211114669      B1        B1 (2)
   12     7           0.7957921521          21.6546056906      A1        A1 (1)
   13    38           0.8057534386          21.9256660820      B2        B2 (3)
   14    52           0.8626484683          23.4738585711      A2        A2 (4)
   15    26           0.9510962003          25.8806437564      B1        B1 (2)
   16     8           1.1344297443          30.8694031894      A1        A1 (1)
   17    39           1.1985398153          32.6139269362      B2        B2 (3)
   18    40           1.5227592716          41.4363870038      B2        B2 (3)
   19     9           1.5649809342          42.5852968719      A1        A1 (1)
   20    27           2.0403013108          55.5194220754      B1        B1 (2)
   21    41           2.0548656874          55.9157389177      B2        B2 (3)
   22    53           2.0631496372          56.1411566545      A2        A2 (4)
   23    10           2.1724502495          59.1153775686      A1        A1 (1)
   24    11           2.2336076178          60.7795541915      A1        A1 (1)
   25    12           2.5843577390          70.3239503624      A1        A1 (1)
   26    42           2.9647672837          80.6754204912      B2        B2 (3)
   27    28           3.3469856058          91.0761099588      B1        B1 (2)
   28    13           3.4854129547          94.8429096801      A1        A1 (1)
   29    54           3.5881134098          97.6375311814      A2        A2 (4)
   30    43           3.6590774520          99.5685609709      B2        B2 (3)
   31    29           3.7975629071         103.3369418439      B1        B1 (2)
   32    44           3.8764357732         105.4831816758      B2        B2 (3)
   33    14           3.8867712462         105.7644241981      A1        A1 (1)
   34    55           3.9634063496         107.8497714119      A2        A2 (4)
   35    30           4.0168128256         109.3030355294      B1        B1 (2)
   36    45           4.0726421527         110.8222287756      B2        B2 (3)
   37    15           4.1911503346         114.0470003991      A1        A1 (1)
   38    56           4.3058229956         117.1674021928      A2        A2 (4)
   39    16           4.3748393179         119.0454318278      A1        A1 (1)
   40    46           4.5942623937         125.0162373635      B2        B2 (3)
   41    31           4.6820996834         127.4064115658      B1        B1 (2)
   42    47           4.8616678667         132.2927103248      B2        B2 (3)
   43    17           5.1570332611         140.3300114371      A1        A1 (1)
   44    18           5.2501317755         142.8633508472      A1        A1 (1)
   45    48           5.5238141414         150.3106267501      B2        B2 (3)
   46    32           6.0516247577         164.6730840146      B1        B1 (2)
   47    19           6.5746391187         178.9050285343      A1        A1 (1)
   48    33           6.9139030085         188.1368684543      B1        B1 (2)
   49    57           6.9378076945         188.7873480405      A2        A2 (4)
   50    34           7.0043052457         190.5968384304      B1        B1 (2)
   51    20           7.0173797861         190.9526147686      A1        A1 (1)
   52    49           7.0369601549         191.4854236985      B2        B2 (3)
   53    21           7.1761020453         195.2716670827      A1        A1 (1)
   54    58           7.2350693736         196.8762496852      A2        A2 (4)
   55    22           7.4490525846         202.6990289731      A1        A1 (1)
   56    50           7.7931109499         212.0613332074      B2        B2 (3)
   57    51           8.2867640511         225.4943172181      B2        B2 (3)
   58    23          12.8368013147         349.3071275898      A1        A1 (1)


  VSCF finished.

  @CHECKOUT-I, Total execution time :       0.1300 seconds.
                0.12 seconds walltime passed
 --executable xvscf finished with status            0
 --invoking executable xvtran
  @GETMEM-I,   Allocated    5722 MB of main memory.
  Partial RHF integral transformation
  Frozen-core orbitals requested within analytic derivative calculation
  Transformation of IIII integrals :
  1 pass through the AO integral file was required.
       47637 AO integrals were read.
       19207 MO integrals were written to HF2.
  Transformation of IIJJ integrals :
  1 pass through the AO integral file was required.
       78167 AO integrals were read.
       25584 MO integrals were written to HF2.
  Transformation of IJIJ integrals :
  1 pass through the AO integral file was required.
      139313 AO integrals were read.
       46506 MO integrals were written to HF2.
  Transformation of IJKL integrals :
  1 pass through the AO integral file was required.
       84950 AO integrals were read.
       23121 MO integrals were written to HF2.
  Summary of active molecular orbitals: 
------------------------------------------------------------------------
 
  Index      Eigenvalue    Symmetry    Index      Eigenvalue    Symmetry
------------------------------------------------------------------------
     1       -20.5555848        1        30         3.7975629        2
     2        -1.3452404        1        31         4.0168128        2
     3        -0.5791551        1        32         4.6820997        2
     4        -0.5046076        2        33         6.0516248        2
     5        -0.7068047        3        34         6.9139030        2
     6         0.1418638        1        35         7.0043052        2
     7         0.6043545        1        36         0.2040461        3
     8         0.6679735        1        37         0.5417480        3
     9         0.7957922        1        38         0.8057534        3
    10         1.1344297        1        39         1.1985398        3
    11         1.5649809        1        40         1.5227593        3
    12         2.1724502        1        41         2.0548657        3
    13         2.2336076        1        42         2.9647673        3
    14         2.5843577        1        43         3.6590775        3
    15         3.4854130        1        44         3.8764358        3
    16         3.8867712        1        45         4.0726422        3
    17         4.1911503        1        46         4.5942624        3
    18         4.3748393        1        47         4.8616679        3
    19         5.1570333        1        48         5.5238141        3
    20         5.2501318        1        49         7.0369602        3
    21         6.5746391        1        50         7.7931109        3
    22         7.0173798        1        51         8.2867641        3
    23         7.1761020        1        52         0.8626485        4
    24         7.4490526        1        53         2.0631496        4
    25        12.8368013        1        54         3.5881134        4
    26         0.7872114        2        55         3.9634063        4
    27         0.9510962        2        56         4.3058230        4
    28         2.0403013        2        57         6.9378077        4
    29         3.3469856        2        58         7.2350694        4
------------------------------------------------------------------------
  @CHECKOUT-I, Total execution time :       0.0400 seconds.
                0.12 seconds walltime passed
 --executable xvtran finished with status            0
 --invoking executable xintprc
  @GETMEM-I,   Allocated    5722 MB of main memory.
  @GMOIAA-I, Processing MO integrals for spin case AA.
  @GMOIAA-I, Generation of integral list completed.
                      TYPE                NUMBER
                      ----               --------
                      PPPP                     0
                      PPPH                 98028
                      PPHH                  9372
                      PHPH                  5838
                      PHHH                  1131
                      HHHH                    49

                     TOTAL                114418

  @FORMT2-I, Second-order MP correlation energies:
              ----------------------------------------------
              E(SCF)                =  -76.056946193050 a.u.
              E2(AA)                =   -0.031781369108 a.u.
              E2(AB)                =   -0.198148416078 a.u.
              E2(TOT)               =   -0.261711154295 a.u.
              Total MP2 energy      =  -76.318657347345 a.u.
              ----------------------------------------------
   Largest T2 amplitudes for spin case AB:
       _       _                 _       _                 _       _
   i   j   a   b             i   j   a   b             i   j   a   b
-----------------------------------------------------------------------------
[  4   4  26  26]-0.04495 [  3   3   8   8]-0.02825 [  4   3  26   8] 0.02754
[  3   4   8  26] 0.02754 [  5   4  38  26] 0.02338 [  4   5  26  38] 0.02338
[  5   5  37  37]-0.02332 [  5   5   7   7]-0.02177 [  5   5  38  38]-0.02148
[  5   4  36  26] 0.02087 [  4   5  26  36] 0.02087 [  3   3  37  37]-0.01955
[  5   5  36  36]-0.01873 [  5   3  38   8]-0.01862 [  3   5   8  38]-0.01862
-----------------------------------------------------------------------------
   Norm of T2AB vector (    18479 symmetry allowed elements):  0.2120032543.
-----------------------------------------------------------------------------
  @CHECKOUT-I, Total execution time :       0.0200 seconds.
                0.25 seconds walltime passed
 --executable xintprc finished with status            0
 --invoking executable xvcc
  @GETMEM-I,   Allocated    5722 MB of main memory.
   CCSD(T) energy will be calculated.
   The total correlation energy is -0.261711154295 a.u.
  W(abef) AB contribution =  0.0430915237 a.u.
   The total correlation energy is -0.262027959396 a.u.
  Convergence information after     1 iterations: 
  Largest element of residual vector : -0.58669514E-02.
  Largest element of DIIS residual   : -0.58669514E-02.
  W(abef) AB contribution =  0.0461211422 a.u.
   The total correlation energy is -0.266778540981 a.u.
  Convergence information after     2 iterations: 
  Largest element of residual vector : -0.22457406E-02.
  Largest element of DIIS residual   : -0.23017304E-02.
  W(abef) AB contribution =  0.0489392821 a.u.
   The total correlation energy is -0.267156938307 a.u.
  Convergence information after     3 iterations: 
  Largest element of residual vector :  0.83356366E-03.
  Largest element of DIIS residual   :  0.75660622E-03.
  W(abef) AB contribution =  0.0498382644 a.u.
   The total correlation energy is -0.267576152956 a.u.
  Convergence information after     4 iterations: 
  Largest element of residual vector :  0.11768838E-03.
  Largest element of DIIS residual   : -0.91922491E-04.
  W(abef) AB contribution =  0.0499132245 a.u.
   The total correlation energy is -0.267597399070 a.u.
  Convergence information after     5 iterations: 
  Largest element of residual vector :  0.13159450E-03.
  Largest element of DIIS residual   :  0.84227261E-04.
  W(abef) AB contribution =  0.0499342098 a.u.
   The total correlation energy is -0.267598822100 a.u.
  Convergence information after     6 iterations: 
  Largest element of residual vector :  0.41708143E-04.
  Largest element of DIIS residual   :  0.24204678E-04.
  W(abef) AB contribution =  0.0499326209 a.u.
   The total correlation energy is -0.267599030939 a.u.
  Convergence information after     7 iterations: 
  Largest element of residual vector :  0.22105688E-04.
  Largest element of DIIS residual   :  0.68615567E-05.
  W(abef) AB contribution =  0.0499338053 a.u.
   The total correlation energy is -0.267599048908 a.u.
  Convergence information after     8 iterations: 
  Largest element of residual vector :  0.44222332E-05.
  Largest element of DIIS residual   :  0.12703077E-05.
  W(abef) AB contribution =  0.0499332840 a.u.
   The total correlation energy is -0.267599117385 a.u.
  Convergence information after     9 iterations: 
  Largest element of residual vector :  0.84401072E-06.
  Largest element of DIIS residual   : -0.25949066E-06.
  W(abef) AB contribution =  0.0499333480 a.u.
   The total correlation energy is -0.267599087534 a.u.
  Convergence information after    10 iterations: 
  Largest element of residual vector :  0.28896143E-06.
  Largest element of DIIS residual   :  0.75684354E-07.
  W(abef) AB contribution =  0.0499333268 a.u.
   The total correlation energy is -0.267599090833 a.u.
  Convergence information after    11 iterations: 
  Largest element of residual vector : -0.21647269E-07.
  Largest element of DIIS residual   :  0.23275610E-07.
  Amplitude equations converged in    11iterations.
   The total correlation energy is -0.267599088931 a.u.
   The CC iterations have converged.

   Largest T1 amplitudes for spin case AA:
   i       a                 i       a                 i       a    
-----------------------------------------------------------------------------
[  4      26    ]-0.00752 [  3       6    ] 0.00585 [  5      40    ]-0.00582
[  4      27    ]-0.00493 [  3       9    ]-0.00456 [  3      11    ]-0.00419
[  2       8    ]-0.00402 [  3       8    ] 0.00386 [  5      45    ]-0.00385
[  3      17    ]-0.00379 [  4      30    ]-0.00323 [  5      38    ]-0.00288
[  4      31    ] 0.00274 [  5      36    ] 0.00271 [  5      46    ]-0.00260
-----------------------------------------------------------------------------
   Norm of T1AA vector (       86 symmetry allowed elements):  0.0185571279.
-----------------------------------------------------------------------------
   Largest T2 amplitudes for spin case AB:
       _       _                 _       _                 _       _
   i   j   a   b             i   j   a   b             i   j   a   b
-----------------------------------------------------------------------------
[  4   4  26  26]-0.04766 [  3   3   8   8]-0.02958 [  5   5  37  37]-0.02708
[  4   3  26   8] 0.02593 [  3   4   8  26] 0.02593 [  5   5   7   7]-0.02533
[  5   5  38  38]-0.02267 [  5   4  38  26] 0.02227 [  4   5  26  38] 0.02227
[  3   3  37  37]-0.02216 [  5   5  36  36]-0.01962 [  5   4  36  26] 0.01931
[  4   5  26  36] 0.01931 [  5   5  38  36]-0.01923 [  5   5  36  38]-0.01923
-----------------------------------------------------------------------------
   Norm of T2AB vector (    18479 symmetry allowed elements):  0.2294765169.
-----------------------------------------------------------------------------
       Summary of iterative solution of CC equations 
      -----------------------------------------------------------
                       Correlation           Total
       Iteration         Energy              Energy
      -----------------------------------------------------------
            0        -0.261711154295     -76.318657347345  DIIS 
            1        -0.262027959396     -76.318974152446  DIIS 
            2        -0.266778540981     -76.323724734031  DIIS 
            3        -0.267156938307     -76.324103131357  DIIS 
            4        -0.267576152956     -76.324522346007  DIIS 
            5        -0.267597399070     -76.324543592120  DIIS 
            6        -0.267598822100     -76.324545015151  DIIS 
            7        -0.267599030939     -76.324545223989  DIIS 
            8        -0.267599048908     -76.324545241958  DIIS 
            9        -0.267599117385     -76.324545310436  DIIS 
           10        -0.267599087534     -76.324545280585  DIIS 
           11        -0.267599088931     -76.324545281981  DIIS 
      -----------------------------------------------------------
      A miracle has come to pass. The CC iterations have converged.
        E(CCSD)           =     -76.324545281981
        E(CCSD + T(CCSD)) =     -76.332410226898
        E(CCSD(T))        =     -76.332216516756
  @CHECKOUT-I, Total execution time :       0.9400 seconds.
 --executable xvcc finished with status            0
 --invoking executable xlambda
  @GETMEM-I,   Allocated    5722 MB of main memory.
  The Lambda equations are solved for CCSD(T).
  Initial lambda amplitudes: 
  W(abef) AB contribution =  0.0499502717 a.u.
   Frozen core orbitals in analytic derivative calculation
  Convergence information after     1 iterations: 
  Largest element of residual vector : -0.38226913E-02.
  Largest element of DIIS residual   : -0.38226913E-02.
  W(abef) AB contribution =  0.0536424057 a.u.
   Frozen core orbitals in analytic derivative calculation
  Convergence information after     2 iterations: 
  Largest element of residual vector :  0.11822558E-02.
  Largest element of DIIS residual   :  0.80638421E-03.
  W(abef) AB contribution =  0.0531936662 a.u.
   Frozen core orbitals in analytic derivative calculation
  Convergence information after     3 iterations: 
  Largest element of residual vector :  0.26427701E-03.
  Largest element of DIIS residual   :  0.15544384E-03.
  W(abef) AB contribution =  0.0532564440 a.u.
   Frozen core orbitals in analytic derivative calculation
  Convergence information after     4 iterations: 
  Largest element of residual vector :  0.16040376E-03.
  Largest element of DIIS residual   :  0.13297404E-03.
  W(abef) AB contribution =  0.0532734562 a.u.
   Frozen core orbitals in analytic derivative calculation
  Convergence information after     5 iterations: 
  Largest element of residual vector :  0.74877306E-04.
  Largest element of DIIS residual   :  0.27411775E-04.
  W(abef) AB contribution =  0.0532816369 a.u.
   Frozen core orbitals in analytic derivative calculation
  Convergence information after     6 iterations: 
  Largest element of residual vector :  0.22851189E-04.
  Largest element of DIIS residual   :  0.68378674E-05.
  W(abef) AB contribution =  0.0532812297 a.u.
   Frozen core orbitals in analytic derivative calculation
  Convergence information after     7 iterations: 
  Largest element of residual vector :  0.52185323E-05.
  Largest element of DIIS residual   : -0.18659735E-05.
  W(abef) AB contribution =  0.0532805634 a.u.
   Frozen core orbitals in analytic derivative calculation
  Convergence information after     8 iterations: 
  Largest element of residual vector :  0.89921346E-06.
  Largest element of DIIS residual   : -0.22786331E-06.
  W(abef) AB contribution =  0.0532804596 a.u.
   Frozen core orbitals in analytic derivative calculation
  Convergence information after     9 iterations: 
  Largest element of residual vector : -0.18219691E-06.
  Largest element of DIIS residual   :  0.63160665E-07.
  Amplitude equations converged in     9 iterations.
 
  Full Fbar is constructed for CCSD second derivatives
 
      The lambda equations have converged.
  @CHECKOUT-I, Total execution time :       0.5500 seconds.
 --executable xlambda finished with status            0
 --invoking executable xdens
  @GETMEM-I,   Allocated    5722 MB of main memory.
  CCSD(T) density and intermediates are calculated.
  The perturbed orbitals are chosen canonical.
  Direct algorithm used for all contributions involving G(AB,CD).
  W(abef) AB contribution =  0.0639850559 a.u.
  W(abef) AB contribution =  0.0671920673 a.u.
                     1                     1
                     2                     2
                     3                     3
                     4                     4
 Total CPU time :   1.000000536441803E-002
  processed                  47637  ao basis integrals from 
                    80  buffers.
 Total CPU time :   0.000000000000000E+000
  processed                 139313  ao basis integrals from 
                   233  buffers.
 Total CPU time :   9.999990463256836E-003
  processed                  78167  ao basis integrals from 
                   131  buffers.
 Total CPU time :   1.000000536441803E-002
  processed                  84950  ao basis integrals from 
                   142  buffers.
  The iterative expansion of D(ai) converged after  16 iterations.
  ----------------------------------------------------------------------
                 Natural orbital occupation numbers
  ----------------------------------------------------------------------
  2.00000  1.98046  1.96378  1.95898  1.95795  0.02928  0.02693  0.01993
  0.01318  0.00759  0.00730  0.00724  0.00644  0.00642  0.00145  0.00145
  0.00114  0.00112  0.00102  0.00092  0.00081  0.00080  0.00077  0.00058
  0.00051  0.00048  0.00046  0.00042  0.00042  0.00037  0.00021  0.00021
  0.00014  0.00014  0.00013  0.00012  0.00010  0.00008  0.00008  0.00007
  0.00007  0.00007  0.00006  0.00006  0.00005  0.00005  0.00005  0.00003
  0.00002  0.00001  0.00001  0.00001  0.00001  0.00001  0.00001  0.00001
  0.00000  0.00000
  Trace of density matrix :  10.0000000000.
  ----------------------------------------------------------------------
  Density calculation successfully completed.
  @CHECKOUT-I, Total execution time :       0.1800 seconds.
                0.25 seconds walltime passed
 --executable xdens finished with status            0
 --invoking executable xvdint
  @GETMEM-I,   Allocated    5722 MB of main memory.
 One- and two-electron integral derivatives are calculated
 for RHF-CC/MBPT hessians and dipole derivatives.
 Spherical gaussians are used.
  Evaluation of 1e integral derivatives required    0.06 seconds.
  Evaluation of 2el integral derivatives
  Evaluation of 2e integral derivatives required    1.10 seconds.
  @CHECKOUT-I, Total execution time :       1.1600 seconds.
                1.25 seconds walltime passed
 --executable xvdint finished with status            0
 --invoking executable xcphf
  @GETMEM-I,   Allocated    5722 MB of main memory.
 Coupled-perturbed HF (CPHF) equations 
 are solved for RHF-CC/MBPT hessian and dipole derivatives.
  relativistic is                      4
  relativistic is                      3
  relativistic is                      4
  relativistic is                      1
  efields on                     3
  efields on                     4
  efields on                     4
 There are 4 perturbations within irrep 1.
 CPHF converged after  19 iterations.
  Calculation of total derivative of f                     4
  Tolerances in treatment of perturbed canonical orbitals:
     Tol1:    0.00001000 Tol2:   25.00000000
  uij elements
-0.0002514  0.0002097  0.0000438 -0.0234025 -0.0905442  0.2131553 -0.0276996
-0.3703225 -0.0520079 -0.0227742  0.0708100
  canonical perturbed fock matrix
 0.0548568  0.0000000  0.0000000  0.0000000 -0.2448498  0.0000000  0.0000000
 0.0000000 -0.1572628 -0.0464210 -0.1503905
  Tolerances in treatment of perturbed canonical orbitals:
     Tol1:    0.00001000 Tol2:   25.00000000
  uij elements
 0.0002289 -0.0004096 -0.0006852  0.0190647  0.0575943 -0.0784784  0.0273287
 0.1107052 -0.0814767  0.0170861  0.0932596
  canonical perturbed fock matrix
-0.0827472  0.0000000  0.0000000  0.0000000  0.1310799  0.0000000  0.0000000
 0.0000000 -0.0365949  0.0097690  0.2734392
  Tolerances in treatment of perturbed canonical orbitals:
     Tol1:    0.00001000 Tol2:   25.00000000
  uij elements
-0.0002289  0.0004096  0.0006852 -0.0190647 -0.0575943  0.0784784 -0.0273287
-0.1107052  0.0814767 -0.0170861 -0.0932596
  canonical perturbed fock matrix
 0.0827472  0.0000000  0.0000000  0.0000000 -0.1310799  0.0000000  0.0000000
 0.0000000  0.0365949 -0.0097690 -0.2734392
  Tolerances in treatment of perturbed canonical orbitals:
     Tol1:    0.00001000 Tol2:   25.00000000
  uij elements
 0.0000000 -0.0010437  0.0030657  0.0010437  0.0000000  0.4623642 -0.0030657
-0.4623642  0.0000000  0.0000000  0.0000000
  canonical perturbed fock matrix
-0.3821423  0.0000000  0.0000000  0.0000000 -0.3439615  0.0000000  0.0000000
 0.0000000 -0.0506749 -0.2412018 -0.3129970
 There are 3 perturbations within irrep 2.
 CPHF converged after  19 iterations.
  Calculation of total derivative of f                     3
  Tolerances in treatment of perturbed canonical orbitals:
     Tol1:    0.00001000 Tol2:   25.00000000
  uij elements
-0.0004098  0.0826547  0.7194177  0.0058580 -0.1535483 -0.8450473
  canonical perturbed fock matrix
 0.0000000  0.0000000  0.0000000  0.0000000  0.0000000  0.0000000
  Tolerances in treatment of perturbed canonical orbitals:
     Tol1:    0.00001000 Tol2:   25.00000000
  uij elements
 0.0004098 -0.0826547 -0.7194177 -0.0058580  0.1535483  0.8450473
  canonical perturbed fock matrix
 0.0000000  0.0000000  0.0000000  0.0000000  0.0000000  0.0000000
  Tolerances in treatment of perturbed canonical orbitals:
     Tol1:    0.00001000 Tol2:   25.00000000
  uij elements
 0.0031751  0.4473998 -1.6861674 -0.0031751 -0.4473998  1.6861674
  canonical perturbed fock matrix
 0.0000000  0.0000000  0.0000000  0.0000000  0.0000000  0.0000000
 There are 4 perturbations within irrep 3.
 CPHF converged after  19 iterations.
  Calculation of total derivative of f                     4
  Tolerances in treatment of perturbed canonical orbitals:
     Tol1:    0.00001000 Tol2:   25.00000000
  uij elements
 0.0010335  0.3050046 -1.0291915 -0.0549764 -0.5011301  1.0222795
  canonical perturbed fock matrix
 0.0000000  0.0000000  0.0000000  0.0000000  0.0000000  0.0000000
  Tolerances in treatment of perturbed canonical orbitals:
     Tol1:    0.00001000 Tol2:   25.00000000
  uij elements
-0.0004250 -0.2989614  0.2871670  0.0415647  0.4709344 -0.3966061
  canonical perturbed fock matrix
 0.0000000  0.0000000  0.0000000  0.0000000  0.0000000  0.0000000
  Tolerances in treatment of perturbed canonical orbitals:
     Tol1:    0.00001000 Tol2:   25.00000000
  uij elements
-0.0010335 -0.3050046  1.0291915  0.0549764  0.5011301 -1.0222795
  canonical perturbed fock matrix
 0.0000000  0.0000000  0.0000000  0.0000000  0.0000000  0.0000000
  Tolerances in treatment of perturbed canonical orbitals:
     Tol1:    0.00001000 Tol2:   25.00000000
  uij elements
-0.0019865 -0.5948125 -0.1596644  0.0019865  0.5948125  0.1596644
  canonical perturbed fock matrix
 0.0000000  0.0000000  0.0000000  0.0000000  0.0000000  0.0000000
 There is 1 perturbation within irrep 4.
 CPHF converged after  15 iterations.
  Calculation of total derivative of f                     1
  Tolerances in treatment of perturbed canonical orbitals:
     Tol1:    0.00001000 Tol2:   25.00000000
  uij elements
-0.6494614  0.4340320
  canonical perturbed fock matrix
 0.0000000  0.0000000

                     SCF static dipole polarizability
                     --------------------------------

                         Ex          Ey          Ez

            Ex       5.110188    0.000000    0.000000
            Ey       0.000000    8.025585    0.000000
            Ez       0.000000    0.000000    6.781179


  @CHECKOUT-I, Total execution time :       0.0400 seconds.
                0.12 seconds walltime passed
 --executable xcphf finished with status            0
 --invoking executable xsdcc
  @GETMEM-I,   Allocated    5722 MB of main memory.
  relativistic                     0
 Vibrational frequencies and infrared intensities are calculated
 at the CCSD(T) level within the harmonic approximation.
 G(ab,cd) and dG(ab,cd)/dx are not explicitly calculated.
 AO based algorithm is used.
 Perturbed canonical orbitals are used.
 CPHF coefficients for vrt-vrt block: U^x(a,b) = -1/2 S^x(a,b)
                     1                     1
                     2                     2
                     3                     3
                     4                     4
 Total CPU time :   0.000000000000000E+000
 processed      46135 ao basis integrals from         12 buffers 
 Total CPU time :   9.999990463256836E-003
 processed      75174 ao basis integrals from         19 buffers 
 Total CPU time :   1.999998092651367E-002
 processed     134658 ao basis integrals from         33 buffers 
 Total CPU time :   9.999990463256836E-003
 processed      82284 ao basis integrals from         21 buffers 
                     1                     1
                     2                     2
                     3                     3
                     4                     4
 Total CPU time :   9.999990463256836E-003
 processed        47637 ao basis integrals from         80 buffers 
 Total CPU time :   9.999990463256836E-003
 processed       139313 ao basis integrals from        233 buffers 
 Total CPU time :   9.999990463256836E-003
 processed        78167 ao basis integrals from        131 buffers 
 Total CPU time :   9.999990463256836E-003
 processed        84950 ao basis integrals from        142 buffers 
                     1                     1
                     2                     2
                     3                     3
                     4                     4
 Total CPU time :   1.000005006790161E-002
 processed        47637 ao basis integrals from         80 buffers 
 Total CPU time :   1.999998092651367E-002
 processed       139313 ao basis integrals from        233 buffers 
 Total CPU time :   9.999990463256836E-003
 processed        78167 ao basis integrals from        131 buffers 
 Total CPU time :   0.000000000000000E+000
 processed        84950 ao basis integrals from        142 buffers 
                     1                     1
                     2                     2
                     3                     3
                     4                     4
 Total CPU time :   9.999990463256836E-003
 processed        47637 ao basis integrals from         80 buffers 
 Total CPU time :   2.000004053115845E-002
 processed       139313 ao basis integrals from        233 buffers 
 Total CPU time :   9.999990463256836E-003
 processed        78167 ao basis integrals from        131 buffers 
 Total CPU time :   9.999990463256836E-003
 processed        84950 ao basis integrals from        142 buffers 
 Transformation of derivative integrals from AO to MO basis:
 RHF transformation
 Transformation of DIIII integral derivatives.
 1 pass through the AO integral derivative file was needed.
     46135 AO integral derivatives were read from file DIIII.
 Transformation of first index required    0.0 seconds.
 Transformation of remaining indices required    0.0 seconds.
     41613 MO integral derivatives were written to file DERINT.
 Transformation of DIIJJ integral derivatives.
 1 pass through the AO integral derivative file was needed.
     75174 AO integral derivatives were read from file DIIJJ.
 Transformation of first index required    0.0 seconds.
 Transformation of remaining indices required    0.0 seconds.
     52331 MO integral derivatives were written to file DERINT.
 Transformation of DIJIJ integral derivatives.
 1 pass through the AO integral derivative file was needed.
    134658 AO integral derivatives were read from file DIJIJ.
 Transformation of first index required    0.0 seconds.
 Transformation of remaining indices required    0.0 seconds.
    104662 MO integral derivatives were written to file DERINT.
 Transformation of DIJKL integral derivatives.
 1 pass through the AO integral derivative file was needed.
     82284 AO integral derivatives were read from file DIJKL.
 Transformation of first index required    0.0 seconds.
 Transformation of remaining indices required    0.0 seconds.
     50358 MO integral derivatives were written to file DERINT.
 Formation of <ab||ci>^chi using AO integrals:
 Transformation of IIII integrals:
 1 pass through the AO integral file was needed.
     47637 AO integrals were read from file IIII.
 Tranformation of first (perturbed) index required   0.0 seconds.
 Tranformation of remaining (unperturbed) indices required   0.0 seconds.
 Transformation of IIJJ integrals:
 1 pass through the AO integral file was needed.
     78167 AO integrals were read from file IIJJ.
 Tranformation of first (perturbed) index required   0.0 seconds.
 Tranformation of remaining (unperturbed) indices required   0.0 seconds.
 Transformation of IJIJ integrals:
 1 pass through the AO integral file was needed.
    139313 AO integrals were read from file IJIJ.
 Tranformation of first (perturbed) index required   0.0 seconds.
 Tranformation of remaining (unperturbed) indices required   0.0 seconds.
 Transformation of IJKL integrals:
 1 pass through the AO integral file was needed.
     84950 AO integrals were read from file IJKL.
 Tranformation of first (perturbed) index required   0.0 seconds.
 Tranformation of remaining (unperturbed) indices required   0.0 seconds.
        MO basis integral derivatives are being calculated
             (Symmetry block 1, perturbation   1)
        First derivative of the wavefunction is calculated
             (Symmetry block 1, perturbation   1)
   Frozen core orbitals in analytic derivative calculation
 Resorts of perturbed amplitudes and integrals required   0.0 seconds.
 Construction of <Phi|(dH_N/dx exp(T))c|0> required   0.0 seconds.
 Starting iterative solution of the perturbed CC equations.
 The DIIS procedure is used to accelerate convergence.
 Convergence criterion is 10**(-7).
 Maximum number of iterations is  50.
   Frozen core orbitals in analytic derivative calculation
   Frozen core orbitals in analytic derivative calculation
 Convergence information after     1 iterations: 
 Largest element of residual vector : -0.16935034E-01.
 Largest element of DIIS residual   : -0.16935034E-01.
   Frozen core orbitals in analytic derivative calculation
 Convergence information after     2 iterations: 
 Largest element of residual vector :  0.25023245E-02.
 Largest element of DIIS residual   :  0.28616272E-02.
   Frozen core orbitals in analytic derivative calculation
 Convergence information after     3 iterations: 
 Largest element of residual vector : -0.22959452E-02.
 Largest element of DIIS residual   : -0.23210244E-02.
   Frozen core orbitals in analytic derivative calculation
 Convergence information after     4 iterations: 
 Largest element of residual vector : -0.12143774E-02.
 Largest element of DIIS residual   : -0.39552896E-03.
   Frozen core orbitals in analytic derivative calculation
 Convergence information after     5 iterations: 
 Largest element of residual vector : -0.40746913E-03.
 Largest element of DIIS residual   : -0.20589693E-03.
   Frozen core orbitals in analytic derivative calculation
 Convergence information after     6 iterations: 
 Largest element of residual vector : -0.12950285E-03.
 Largest element of DIIS residual   : -0.39839291E-04.
   Frozen core orbitals in analytic derivative calculation
 Convergence information after     7 iterations: 
 Largest element of residual vector : -0.34075417E-04.
 Largest element of DIIS residual   :  0.10909762E-04.
   Frozen core orbitals in analytic derivative calculation
 Convergence information after     8 iterations: 
 Largest element of residual vector :  0.40320782E-05.
 Largest element of DIIS residual   :  0.23487496E-05.
   Frozen core orbitals in analytic derivative calculation
 Convergence information after     9 iterations: 
 Largest element of residual vector :  0.97840201E-06.
 Largest element of DIIS residual   :  0.45472169E-06.
   Frozen core orbitals in analytic derivative calculation
 Convergence information after    10 iterations: 
 Largest element of residual vector :  0.21582059E-06.
 Largest element of DIIS residual   :  0.15114211E-06.
   Frozen core orbitals in analytic derivative calculation
 Convergence information after    11 iterations: 
 Largest element of residual vector : -0.84002820E-07.
 Largest element of DIIS residual   : -0.43382993E-07.
 Perturbed amplitude equations converged in    11 iterations.
  Dominant contributions to perturbed wavefunction:
    5    5   25    7   0.0802203238 ABAB
    5    5    7   25   0.0802203238 ABAB
    5    3   25   37   0.0553510428 ABAB
    3    5   37   25   0.0553510428 ABAB
    5    5   13    7  -0.0499871479 ABAB
    5    5    7   13  -0.0499871479 ABAB
    4    2   26   25  -0.0489626142 ABAB
    2    4   25   26  -0.0489626142 ABAB
    5    5   38   38  -0.0460990848 ABAB
    5    5   41   37  -0.0437318956 ABAB
    5    5   37   41  -0.0437318956 ABAB
    5    5   20    7   0.0434598574 ABAB
    5    5    7   20   0.0434598574 ABAB
    5    5   19    7   0.0418883300 ABAB
    5    5    7   19   0.0418883300 ABAB
    5    5   41   36  -0.0400096197 ABAB
    5    5   36   41  -0.0400096197 ABAB
    5    4   41   26   0.0396611210 ABAB
    4    5   26   41   0.0396611210 ABAB
    5    5   25   11   0.0388890841 ABAB
  Total CCSD gradient is    0.024091863572143.
  norm of converged amps   0.623996023929382     
  There are                     30  ijk combinations. 
 PARA: timing for (T) xsdcc                0.56 seconds.
  total triples energy   0.000000000000000E+000
  total triples energy gradient   1.793003717544585E-003
  total triples energy gradient   1.779839106519389E-005
  total triples energy gradient   0.000000000000000E+000
   Frozen core orbitals in analytic derivative calculation
 Starting iterative solution of the perturbed Lambda equations.
 The DIIS procedure is used to accelerate convergence.
 Convergence criterion is 10**(-7).
 Maximum number of iterations is  50.
   Frozen core orbitals in analytic derivative calculation
 Convergence information after     1 iterations: 
 Largest element of residual vector : -0.15833056E-01.
 Largest element of DIIS residual   : -0.15833056E-01.
   Frozen core orbitals in analytic derivative calculation
 Convergence information after     2 iterations: 
 Largest element of residual vector :  0.25221178E-02.
 Largest element of DIIS residual   :  0.31147205E-02.
   Frozen core orbitals in analytic derivative calculation
 Convergence information after     3 iterations: 
 Largest element of residual vector : -0.24225722E-02.
 Largest element of DIIS residual   : -0.25131436E-02.
   Frozen core orbitals in analytic derivative calculation
 Convergence information after     4 iterations: 
 Largest element of residual vector : -0.12735858E-02.
 Largest element of DIIS residual   : -0.42018921E-03.
   Frozen core orbitals in analytic derivative calculation
 Convergence information after     5 iterations: 
 Largest element of residual vector : -0.42862215E-03.
 Largest element of DIIS residual   : -0.21726579E-03.
   Frozen core orbitals in analytic derivative calculation
 Convergence information after     6 iterations: 
 Largest element of residual vector : -0.13653195E-03.
 Largest element of DIIS residual   : -0.40652669E-04.
   Frozen core orbitals in analytic derivative calculation
 Convergence information after     7 iterations: 
 Largest element of residual vector : -0.36528996E-04.
 Largest element of DIIS residual   : -0.11506961E-04.
   Frozen core orbitals in analytic derivative calculation
 Convergence information after     8 iterations: 
 Largest element of residual vector :  0.39296498E-05.
 Largest element of DIIS residual   :  0.22487063E-05.
   Frozen core orbitals in analytic derivative calculation
 Convergence information after     9 iterations: 
 Largest element of residual vector :  0.95013500E-06.
 Largest element of DIIS residual   :  0.43535322E-06.
   Frozen core orbitals in analytic derivative calculation
 Convergence information after    10 iterations: 
 Largest element of residual vector :  0.17684378E-06.
 Largest element of DIIS residual   :  0.12442825E-06.
   Frozen core orbitals in analytic derivative calculation
 Convergence information after    11 iterations: 
 Largest element of residual vector : -0.95939949E-07.
 Largest element of DIIS residual   : -0.62279606E-07.
 Perturbed Lambda equations converged in    11 iterations.
  Dominant contributions to perturbed wavefunction:
    5    5   25    7   0.0843717435 ABAB
    5    5    7   25   0.0843717435 ABAB
    5    3   25   37   0.0611428078 ABAB
    3    5   37   25   0.0611428078 ABAB
    5    5   13    7  -0.0533307570 ABAB
    5    5    7   13  -0.0533307570 ABAB
    4    2   26   25  -0.0517514877 ABAB
    2    4   25   26  -0.0517514877 ABAB
    5    5   38   38  -0.0480818302 ABAB
    5    5   41   37  -0.0461092351 ABAB
    5    5   37   41  -0.0461092351 ABAB
    5    5   20    7   0.0457747263 ABAB
    5    5    7   20   0.0457747263 ABAB
    5    5   19    7   0.0439056298 ABAB
    5    5    7   19   0.0439056298 ABAB
    5    4   41   26   0.0429530880 ABAB
    4    5   26   41   0.0429530880 ABAB
    5    5   41   36  -0.0427574854 ABAB
    5    5   36   41  -0.0427574854 ABAB
    5    3   13   37  -0.0404371836 ABAB
  Total CCSD gradient is    0.026918604923536.
        The first-order density matrix is being calculated 
             (Symmetry block 1, perturbation   1)
  There are                      0  special pairs.
 Calculation of the contributions of <pq||rs> to dI(i,j)/dx
 required   0.0 seconds.
 Calculation of the contributions of <pq||rs> to dI(a,b)/dx
 required   0.2 seconds.
 Calculation of the contributions of <pq||rs> to dI(i,a)/dx
 required   0.0 seconds.
                     1                     1
                     2                     2
                     3                     3
                     4                     4
 Total CPU time :   9.999990463256836E-003
 processed        47637 ao basis integrals from         80 buffers 
 Total CPU time :   9.999990463256836E-003
 processed       139313 ao basis integrals from        233 buffers 
 Total CPU time :   9.999990463256836E-003
 processed        78167 ao basis integrals from        131 buffers 
 Total CPU time :   9.999990463256836E-003
 processed        84950 ao basis integrals from        142 buffers 
 First-order Z-vector equations are solved for 1 perturbation.
 Convergence reached after  18 iterations.
        U*G(pq,rs) contribution is being calculated
             (Symmetry block 1, perturbation   1)

 CCSD(T) contribution to force constants 

       -0.0559126237        0.0046378400       -0.0046378400
        0.0000000000        0.0000000000        0.0000000000
        0.0000000000        0.0000000000        0.0000000000
       -0.0000260033        0.0000000000        0.0000000000
        0.0000000000        0.0000000000        0.0000000000
        0.0000000000        0.0000000000        0.0000000000
        0.0000260033        0.0000000000        0.0000000000
        0.0000000000        0.0000000000        0.0000000000
        0.0000000000        0.0000000000        0.0000000000
        0.0000000000        0.0000000000        0.0000000000
        0.0000000000        0.0000000000        0.0000000000
        0.0000000000        0.0000000000        0.0000000000
        0.0000000000        0.0000000000        0.0000000000
        0.0000000000        0.0000000000        0.0000000000
        0.0000000000        0.0000000000        0.0000000000
        0.0000000000        0.0000000000        0.0000000000
        0.0000000000        0.0000000000        0.0000000000
        0.0000000000        0.0000000000        0.0000000000
        0.0000000000        0.0000000000        0.0000000000
        0.0000000000        0.0000000000        0.0000000000
        0.0000000000        0.0000000000        0.0000000000
        0.0000000000        0.0000000000        0.0000000000
        0.0000000000        0.0000000000        0.0000000000
        0.0000000000        0.0000000000        0.0000000000
        0.0000000000        0.0000000000        0.0000000000
        0.0000000000        0.0000000000        0.0000000000
        0.0000000000        0.0000000000        0.0000000000

 CCSD(T) contribution to dipole derivatives 

        0.0000000000        0.0000000000        0.0000000000
        0.0000000000        0.0000000000        0.0000000000
        0.0000000000        0.0000000000        0.0000000000
        0.0000000000        0.0000000000        0.0000000000
        0.0000000000        0.0000000000        0.0000000000
        0.0000000000        0.0000000000        0.0000000000
        0.0129580335        0.0000000000        0.0000000000
        0.0000000000        0.0000000000        0.0000000000
        0.0000000000        0.0000000000        0.0000000000
  @CHECKOUT-I, Total execution time :       3.1900 seconds.
                3.75 seconds walltime passed
 --executable xsdcc finished with status            0
 --invoking executable xanti
  @GETMEM-I,   Allocated    5722 MB of main memory.
 CCSD(T) MO derivative gammas will be sorted to Mulliken order.
  @CHECKOUT-I, Total execution time :       0.1000 seconds.
                0.12 seconds walltime passed
 --executable xanti finished with status            0
 --invoking executable xbcktrn
  @GETMEM-I,   Allocated    5722 MB of main memory.
  @CHECKOUT-I, Total execution time :       0.0300 seconds.
                0.12 seconds walltime passed
 --executable xbcktrn finished with status            0
 --invoking executable xvdint
  @GETMEM-I,   Allocated    5722 MB of main memory.
 One- and two-electron integral derivatives are calculated
 for RHF-CC/MBPT hessians and dipole derivatives.
 Spherical gaussians are used.
  Evaluation of 2el integral derivatives

                      Two-electron integral gradient
                      ------------------------------

                         H #1 y     0.2495519729
                         H #1 z    -0.1048515302
                         O #2 z     0.1048515302


 H #1 1     0.0000000000            0.1247759864           -0.0524257651
 H #1 2     0.0000000000           -0.1247759864           -0.0524257651
 O #2       0.0000000000            0.0000000000            0.1048515302


  Evaluation of 2e integral derivatives required    0.61 seconds.
  contribution to Hessian
        0.2495519729       -0.1048515302        0.1048515302
        0.0000000000        0.0000000000        0.0000000000
        0.0000000000        0.0000000000        0.0000000000
  @CHECKOUT-I, Total execution time :       0.6100 seconds.
                1.00 seconds walltime passed
 --executable xvdint finished with status            0
 --invoking executable xsdcc
  @GETMEM-I,   Allocated    5722 MB of main memory.
  relativistic                     0
 Vibrational frequencies and infrared intensities are calculated
 at the CCSD(T) level within the harmonic approximation.
 G(ab,cd) and dG(ab,cd)/dx are not explicitly calculated.
 AO based algorithm is used.
 Perturbed canonical orbitals are used.
 CPHF coefficients for vrt-vrt block: U^x(a,b) = -1/2 S^x(a,b)
                     1                     1
                     2                     2
                     3                     3
                     4                     4
 Total CPU time :   1.000002026557922E-002
 processed      44415 ao basis integrals from         11 buffers 
 Total CPU time :   9.999990463256836E-003
 processed      72315 ao basis integrals from         18 buffers 
 Total CPU time :   9.999990463256836E-003
 processed     130224 ao basis integrals from         32 buffers 
 Total CPU time :   9.999990463256836E-003
 processed      79788 ao basis integrals from         20 buffers 
                     1                     1
                     2                     2
                     3                     3
                     4                     4
 Total CPU time :   1.000005006790161E-002
 processed        47637 ao basis integrals from         80 buffers 
 Total CPU time :   1.999998092651367E-002
 processed       139313 ao basis integrals from        233 buffers 
 Total CPU time :   9.999990463256836E-003
 processed        78167 ao basis integrals from        131 buffers 
 Total CPU time :   0.000000000000000E+000
 processed        84950 ao basis integrals from        142 buffers 
                     1                     1
                     2                     2
                     3                     3
                     4                     4
 Total CPU time :   9.999990463256836E-003
 processed        47637 ao basis integrals from         80 buffers 
 Total CPU time :   2.000004053115845E-002
 processed       139313 ao basis integrals from        233 buffers 
 Total CPU time :   9.999990463256836E-003
 processed        78167 ao basis integrals from        131 buffers 
 Total CPU time :   9.999990463256836E-003
 processed        84950 ao basis integrals from        142 buffers 
                     1                     1
                     2                     2
                     3                     3
                     4                     4
 Total CPU time :   9.999990463256836E-003
 processed        47637 ao basis integrals from         80 buffers 
 Total CPU time :   1.999998092651367E-002
 processed       139313 ao basis integrals from        233 buffers 
 Total CPU time :   1.000005006790161E-002
 processed        78167 ao basis integrals from        131 buffers 
 Total CPU time :   9.999990463256836E-003
 processed        84950 ao basis integrals from        142 buffers 
 Transformation of derivative integrals from AO to MO basis:
 RHF transformation
 Transformation of DIIII integral derivatives.
 1 pass through the AO integral derivative file was needed.
     44415 AO integral derivatives were read from file DIIII.
 Transformation of first index required    0.0 seconds.
 Transformation of remaining indices required    0.0 seconds.
     41613 MO integral derivatives were written to file DERINT.
 Transformation of DIIJJ integral derivatives.
 1 pass through the AO integral derivative file was needed.
     72315 AO integral derivatives were read from file DIIJJ.
 Transformation of first index required    0.0 seconds.
 Transformation of remaining indices required    0.0 seconds.
     52331 MO integral derivatives were written to file DERINT.
 Transformation of DIJIJ integral derivatives.
[...]
        0.0000000000        0.0000000000        0.0000000000
        0.0000000000        0.0000000000        0.0000000000
        0.0000000000        0.0000000000        0.0000000000
  @CHECKOUT-I, Total execution time :       2.9100 seconds.
                3.38 seconds walltime passed
 --executable xsdcc finished with status            0
 --invoking executable xanti
  @GETMEM-I,   Allocated    5722 MB of main memory.
 CCSD(T) MO derivative gammas will be sorted to Mulliken order.
  @CHECKOUT-I, Total execution time :       0.0500 seconds.
                0.12 seconds walltime passed
 --executable xanti finished with status            0
 --invoking executable xbcktrn
  @GETMEM-I,   Allocated    5722 MB of main memory.
  @CHECKOUT-I, Total execution time :       0.0300 seconds.
                0.12 seconds walltime passed
 --executable xbcktrn finished with status            0
 --invoking executable xvdint
  @GETMEM-I,   Allocated    5722 MB of main memory.
 One- and two-electron integral derivatives are calculated
 for RHF-CC/MBPT hessians and dipole derivatives.
 Spherical gaussians are used.
  Evaluation of 2el integral derivatives

                      Two-electron integral gradient
                      ------------------------------

                         H #1 y     0.0000000000
                         H #1 z     0.0000000000
                         O #2 z     0.0000000000


 H #1 1     0.0392290087            0.0000000000            0.0000000000
 H #1 2    -0.0392290087            0.0000000000            0.0000000000
 O #2       0.0000000000            0.0000000000            0.0000000000


  Evaluation of 2e integral derivatives required    0.55 seconds.
  contribution to Hessian
        0.0000000000        0.0000000000        0.0000000000
        0.0000000000        0.0000000000        0.0000000000
        0.0000000000        0.0000000000        0.0784580174
  @CHECKOUT-I, Total execution time :       0.5400 seconds.
                0.75 seconds walltime passed
 --executable xvdint finished with status            0
 --invoking executable xanti
  @GETMEM-I,   Allocated    5722 MB of main memory.
 CCSD(T) MO gammas will be sorted to Mulliken order.
  @CHECKOUT-I, Total execution time :       0.0800 seconds.
                0.25 seconds walltime passed
 --executable xanti finished with status            0
 --invoking executable xbcktrn
  @GETMEM-I,   Allocated    5722 MB of main memory.
  @CHECKOUT-I, Total execution time :       0.0200 seconds.
                0.12 seconds walltime passed
 --executable xbcktrn finished with status            0
 --invoking executable xvdint
  @GETMEM-I,   Allocated    5722 MB of main memory.
 One- and two-electron integral derivatives are calculated
 for RHF-CC/MBPT hessians and dipole derivatives.
 Spherical gaussians are used.

                     Kinetic energy integral gradient
                     --------------------------------

                         H #1 y     1.0929026326
                         H #1 z    -0.8814426377
                         O #2 z     0.8814426377


 H #1 1     0.0000000000            0.5464513163           -0.4407213188
 H #1 2     0.0000000000           -0.5464513163           -0.4407213188
 O #2       0.0000000000            0.0000000000            0.8814426377



                   Nuclear attraction integral gradient
                   ------------------------------------

                         H #1 y    -9.9391785235
                         H #1 z     7.9110723758
                         O #2 z    -7.9110723758


 H #1 1     0.0000000000           -4.9695892617            3.9555361879
 H #1 2     0.0000000000            4.9695892617            3.9555361879
 O #2       0.0000000000            0.0000000000           -7.9110723758



                      Reorthonormalization gradient
                      -----------------------------

                         H #1 y     0.4377061167
                         H #1 z    -0.4052632825
                         O #2 z     0.4052632825


 H #1 1     0.0000000000            0.2188530584           -0.2026316413
 H #1 2     0.0000000000           -0.2188530584           -0.2026316413
 O #2       0.0000000000            0.0000000000            0.4052632825



                     Kinetic energy integral Hessian
                     -------------------------------


           Symmetry 1

           H #1 y      H #1 z      O #2 z

 H #1 y    0.136491
 H #1 z   -1.224094   -0.385195
 O #2 z    1.224094    0.385195   -0.385195


           Symmetry 2

           H #1 x      O #2 x

 H #1 x   -1.447900
 O #2 x    1.447900   -1.447900


           Symmetry 3

           H #1 y      H #1 z      O #2 y

 H #1 y    0.219433
 H #1 z   -1.224094   -0.367627
 O #2 y   -0.219433    1.224094    0.219433


           Symmetry 4

           H #1 x

 H #1 x   -1.434566




           H #1 x      H #1 y      H #1 z      H #2 x      H #2 y      H #2 z

 H #1 x   -0.720617
 H #1 y    0.000000    0.088981
 H #1 z    0.000000   -0.612047   -0.188206

 H #2 x   -0.003333    0.000000    0.000000   -0.720617
 H #2 y    0.000000    0.020736    0.000000    0.000000    0.088981
 H #2 z    0.000000    0.000000   -0.004392    0.000000    0.612047   -0.188206

 O #2 x    0.723950    0.000000    0.000000    0.723950    0.000000    0.000000
 O #2 y    0.000000   -0.109717    0.612047    0.000000   -0.109717   -0.612047
 O #2 z    0.000000    0.612047    0.192598    0.000000   -0.612047    0.192598


           O #2 x      O #2 y      O #2 z

 O #2 x   -1.447900
 O #2 y    0.000000    0.219433
 O #2 z    0.000000    0.000000   -0.385195




                   Nuclear attraction integral Hessian
                   -----------------------------------


           Symmetry 1

           H #1 y      H #1 z      O #2 z

 H #1 y    0.527707
 H #1 z    8.377420    4.527907
 O #2 z   -8.377420   -4.527907    4.527907


           Symmetry 2

           H #1 x      O #2 x

 H #1 x   11.542661
 O #2 x  -11.542661   11.542661


           Symmetry 3

           H #1 y      H #1 z      O #2 y

 H #1 y    0.138002
 H #1 z    8.559250    4.296342
 O #2 y   -0.138002   -8.559250    0.138002


           Symmetry 4

           H #1 x

 H #1 x   11.420224




           H #1 x      H #1 y      H #1 z      H #2 x      H #2 y      H #2 z

 H #1 x    5.740721
 H #1 y    0.000000    0.166427
 H #1 z    0.000000    4.234168    2.206062

 H #2 x    0.030609    0.000000    0.000000    5.740721
 H #2 y    0.000000   -0.097426    0.045458    0.000000    0.166427
 H #2 z    0.000000   -0.045458    0.057891    0.000000   -4.234168    2.206062

 O #2 x   -5.771330    0.000000    0.000000   -5.771330    0.000000    0.000000
 O #2 y    0.000000   -0.069001   -4.279625    0.000000   -0.069001    4.279625
 O #2 z    0.000000   -4.188710   -2.263953    0.000000    4.188710   -2.263953


           O #2 x      O #2 y      O #2 z

 O #2 x   11.542661
 O #2 y    0.000000    0.138002
 O #2 z    0.000000    0.000000    4.527907




                Highest order reorthonormalization Hessian
                ------------------------------------------


           Symmetry 1

           H #1 y      H #1 z      O #2 z

 H #1 y   -0.374691
 H #1 z   -0.309207   -0.455067
 O #2 z    0.309207    0.455067   -0.455067


           Symmetry 2

           H #1 x      O #2 x

 H #1 x   -0.730188
 O #2 x    0.730188   -0.730188


           Symmetry 3

           H #1 y      H #1 z      O #2 y

 H #1 y   -0.314893
 H #1 z   -0.309207   -0.416755
 O #2 y    0.314893    0.309207   -0.314893


           Symmetry 4

           H #1 x

 H #1 x   -0.694245




           H #1 x      H #1 y      H #1 z      H #2 x      H #2 y      H #2 z

 H #1 x   -0.356108
 H #1 y    0.000000   -0.172396
 H #1 z    0.000000   -0.154603   -0.217955

 H #2 x   -0.008986    0.000000    0.000000   -0.356108
 H #2 y    0.000000    0.014949    0.000000    0.000000   -0.172396
 H #2 z    0.000000    0.000000   -0.009578    0.000000    0.154603   -0.217955

 O #2 x    0.365094    0.000000    0.000000    0.365094    0.000000    0.000000
 O #2 y    0.000000    0.157446    0.154603    0.000000    0.157446   -0.154603
 O #2 z    0.000000    0.154603    0.227533    0.000000   -0.154603    0.227533


           O #2 x      O #2 y      O #2 z

 O #2 x   -0.730188
 O #2 y    0.000000   -0.314893
 O #2 z    0.000000    0.000000   -0.455067




                Electronic contributions to dipole moment
                -----------------------------------------

                               au             Debye

                    z     -0.23438110     -0.59573743

  Conversion factor used: 1 a.u. =   2.54174691 Debye 



   Electronic contributions to static part of dipole moment derivatives
   --------------------------------------------------------------------


                     Total dipole moment derivatives
                     -------------------------------


           Symmetry 1
                              Ez

               H #1 y    -0.39205285
               H #1 z    -1.19804301
               O #2 z    -8.80195699

           Symmetry 2
                              Ex

               H #1 x    -1.52209474
               O #2 x    -8.47790526

           Symmetry 3
                              Ey

               H #1 y    -0.84190948
               H #1 z    -0.48437470
               O #2 y    -9.15809052



                       Ex          Ey          Ez

      H #11   x   -0.761047    0.000000    0.000000
      H #11   y    0.000000   -0.420955   -0.196026
      H #11   z    0.000000   -0.242187   -0.599022

      H #12   x   -0.761047    0.000000    0.000000
      H #12   y    0.000000   -0.420955    0.196026
      H #12   z    0.000000    0.242187   -0.599022

      O #2    x   -8.477905    0.000000    0.000000
      O #2    y    0.000000   -9.158091    0.000000
      O #2    z    0.000000    0.000000   -8.801957

  Evaluation of 1e integral derivatives required    0.05 seconds.
  Evaluation of 2el integral derivatives

                      Two-electron integral gradient
                      ------------------------------

                         H #1 y     4.3375803208
                         H #1 z    -3.6137155764
                         O #2 z     3.6137155764


 H #1 1     0.0000000000            2.1687901604           -1.8068577882
 H #1 2     0.0000000000           -2.1687901604           -1.8068577882
 O #2       0.0000000000            0.0000000000            3.6137155764


  Evaluation of 2e integral derivatives required    1.27 seconds.

                            Molecular gradient
                            ------------------

                         H #1 y    -0.0000000224
                         H #1 z     0.0000000022
                         O #2 z    -0.0000000022


 H #1 1     0.0000000000           -0.0000000112            0.0000000011
 H #1 2     0.0000000000            0.0000000112            0.0000000011
 O #2       0.0000000000            0.0000000000           -0.0000000022


  Molecular gradient norm 0.226E-07

                            Molecular hessian
                            -----------------


           Symmetry 1

           H #1 y      H #1 z      O #2 z

 H #1 y    0.813452
 H #1 z   -0.407993    0.465643
 O #2 z    0.407993   -0.465643    0.465643


           Symmetry 2

           H #1 x      O #2 x

 H #1 x    0.000000
 O #2 x    0.000000    0.000000


           Symmetry 3

           H #1 y      H #1 z      O #2 y

 H #1 y    0.680233
 H #1 z   -0.535461    0.421502
 O #2 y   -0.680233    0.535461    0.680233


           Symmetry 4

           H #1 x

 H #1 x    0.000000




           H #1 x      H #1 y      H #1 z      H #2 x      H #2 y      H #2 z

 H #1 x    0.000000
 H #1 y    0.000000    0.373421
 H #1 z    0.000000   -0.235864    0.221786

 H #2 x    0.000000    0.000000    0.000000    0.000000
 H #2 y    0.000000   -0.033305   -0.031867    0.000000    0.373421
 H #2 z    0.000000    0.031867    0.011035    0.000000    0.235864    0.221786

 O #2 x    0.000000    0.000000    0.000000    0.000000    0.000000    0.000000
 O #2 y    0.000000   -0.340117    0.267731    0.000000   -0.340117   -0.267731
 O #2 z    0.000000    0.203997   -0.232822    0.000000   -0.203997   -0.232822


           O #2 x      O #2 y      O #2 z

 O #2 x    0.000000
 O #2 y    0.000000    0.680233
 O #2 z    0.000000    0.000000    0.465643




                           Total dipole moment
                           -------------------

                               au             Debye

                    z      0.75343070      1.91503016

  Conversion factor used: 1 a.u. =   2.54174691 Debye 



                     Total dipole moment derivatives
                     -------------------------------


           Symmetry 1
                              Ez

               H #1 y     0.14479491
               H #1 z     0.32085253
               O #2 z    -0.32085253

           Symmetry 2
                              Ex

               H #1 x     0.67184920
               O #2 x    -0.67184920

           Symmetry 3
                              Ey

               H #1 y     0.45347460
               H #1 z     0.17189864
               O #2 y    -0.45347460



                       Ex          Ey          Ez

      H #11   x    0.335925    0.000000    0.000000
      H #11   y    0.000000    0.226737    0.072397
      H #11   z    0.000000    0.085949    0.160426

      H #12   x    0.335925    0.000000    0.000000
      H #12   y    0.000000    0.226737   -0.072397
      H #12   z    0.000000   -0.085949    0.160426

      O #2    x   -0.671849    0.000000    0.000000
      O #2    y    0.000000   -0.453475    0.000000
      O #2    z    0.000000    0.000000   -0.320853

  @CHECKOUT-I, Total execution time :       1.3200 seconds.
                1.62 seconds walltime passed
 --executable xvdint finished with status            0
 --invoking executable xjoda
  masses used (in AMU) in vibrational analysis: 
   1.007825035     15.994914630      1.007825035
                     Normal Coordinate Analysis
  ----------------------------------------------------------------
    Irreducible         Harmonic       Infrared        Type 
   Representation       Frequency      Intensity 
  ----------------------------------------------------------------
                       (cm-1)         (km/mol)
  ----------------------------------------------------------------
      ----                 0.2100i        0.2460      TRANSLATION
      ----                 0.0000i        0.0000      TRANSLATION
      ----                 0.0000         0.0000      TRANSLATION
      ----                 0.8032       245.8214       ROTATION  
      ----                 1.7390         0.0000       ROTATION  
      ----                 3.9497        87.0111       ROTATION  
        A1              1668.8833        62.9904       VIBRATION 
        A1              3840.9218         3.2139       VIBRATION 
        B2              3945.5314        39.0250       VIBRATION 
  ----------------------------------------------------------------
 
 
                                   Normal Coordinates 

                A1                        A1                        B2
              1668.88                   3840.92                   3945.53 
             VIBRATION                 VIBRATION                 VIBRATION 
 H      0.000 0.4133  0.5407    0.0000  0.5737 -0.3895    0.0000  0.5352 -0.4213
 O      0.000 0.0000 -0.2714    0.0000  0.0000  0.1955    0.0000 -0.2687  0.0000
 H      0.000-0.4133  0.5407    0.0000 -0.5737 -0.3895    0.0000  0.5352  0.4213
            Gradient vector in normal coordinate representation
         ----------------------------------------------------------
   i    W(I)     dE/dQ(i)     dE/dq      dE/dq     [dE/dQ(i)]/w(i)
                              (cm-1)      (eV)        (relative)
         ----------------------------------------------------------
    7  1668.88 -0.0000000079     -0.00046      0.00000   0.0000000000
    8  3840.92 -0.0000000138     -0.00053      0.00000   0.0000000000
    9  3945.53  0.0000000000      0.00000      0.00000   0.0000000000
         ----------------------------------------------------------
 
                      Normal modes in internal coordinates 
---------------------------------------------------------------------------
              0.210         0.000         0.000         0.803         1.739
---------------------------------------------------------------------------
R1         0.000000      0.000000      0.000000      0.000000      0.000000
R1         0.000000      0.000000      0.000000      0.000000      0.000000
A1         0.000000      0.000000      0.000000      0.000000      0.000000
---------------------------------------------------------------------------
              3.950      1668.883      3840.922      3945.531
---------------------------------------------------------------------------
R1         0.000000      0.063735     -0.707063     -0.707107
R1         0.000000      0.063735     -0.707063      0.707107
A1         0.000000     -0.995930     -0.011088      0.000000
---------------------------------------------------------------------------
 
  ----------------------------------------------------------------
                    Dipole Moment Function
                   (Normal Coordinate Basis)
  ----------------------------------------------------------------
    Mode     Symmetry    d(Mu(x))/dQ   d(Mu(y))/dQ   d(Mu(z))/dQ
  ----------------------------------------------------------------
     Q7          A1        0.000000      0.000000      0.254193
     Q8          A1        0.000000      0.000000     -0.057418
     Q9          B2        0.000000      0.200078      0.000000
  ----------------------------------------------------------------
---------------------------------------------------------------------------
------------------------------------------------------------
        Parameter                (MHz)                 (CM-1)
------------------------------------------------------------
 
           R6                -.314225E+01           -.104814E-03
           R5                0.303598E+02           0.101269E-02
           SI                            0.560023E+01
 
  A-reduced centrifugal distortion parameters 
 
           DJ                0.291604E+02           0.972685E-03
           DK                0.674930E+03           0.225132E-01
           DJK               -.108895E+03           -.363236E-02
           DELJ              0.354449E+02           0.118231E-02
           DELK              0.706353E+03           0.235614E-01
           DELJK             -.146602E+03           -.489013E-02
           delJ              0.142433E+02           0.475107E-03
           delK              0.966972E+01           0.322547E-03
 
  S-reduced centrifugal distortion parameters 
 
           DJ                0.345815E+02           0.115352E-02
           DK                0.702036E+03           0.234174E-01
           DJK               -.141422E+03           -.471734E-02
           D1                -.142433E+02           -.475107E-03
           D2                -.431666E+00           -.143988E-04
------------------------------------------------------------
   Vibrational frequencies after rotational projection  of 
   Cartesian force constants: 
            1               0.0000i
            2               0.0000i
            3               0.0000i
            4               0.0000 
            5               0.0000 
            6               0.0001 
            7            1668.8833 
            8            3840.9218 
            9            3945.5314 
  Zero-point vibrational energy:   13.5171 kcal/mol =   56.5555 kJ/mol.
                0.12 seconds walltime passed
 --executable xjoda finished with status            0
